MODEL 1
REMARK VINA RESULT:    -7.574      0.000      0.000
REMARK INTER + INTRA:         -11.049
REMARK INTER:                 -10.673
REMARK INTRA:                  -0.376
REMARK UNBOUND:                -0.376
REMARK SMILES CCC/C=C/C[C@H]([C@H](C)O)n1cnc2c(N)ncnc21
REMARK SMILES IDX 6 1 5 2 4 3 3 4 2 5 1 6 7 7 8 8 9 9 10 10 11 12 12 13 20 14
REMARK SMILES IDX 13 15 19 16 14 17 18 18 15 19 17 20 16 21
REMARK H PARENT 10 11 16 22 16 23
ROOT
ATOM      1  C   UNL     1      50.680  56.898  22.410  1.00  0.00    +0.055 C 
ENDROOT
BRANCH   1   2
ATOM      2  C   UNL     1      49.562  56.982  21.399  1.00  0.00    -0.029 C 
ATOM      3  C   UNL     1      48.615  57.933  21.415  1.00  0.00    -0.031 C 
BRANCH   3   4
ATOM      4  C   UNL     1      47.471  58.103  20.448  1.00  0.00    +0.027 C 
BRANCH   4   5
ATOM      5  C   UNL     1      47.735  58.975  19.218  1.00  0.00    +0.001 C 
ATOM      6  C   UNL     1      47.008  60.307  19.316  1.00  0.00    +0.004 C 
ENDBRANCH   4   5
ENDBRANCH   3   4
ENDBRANCH   1   2
BRANCH   1   7
ATOM      7  C   UNL     1      52.057  56.638  21.759  1.00  0.00    +0.122 C 
BRANCH   7   8
ATOM      8  C   UNL     1      52.793  57.932  21.325  1.00  0.00    +0.134 C 
ATOM      9  C   UNL     1      54.306  57.811  21.179  1.00  0.00    +0.040 C 
BRANCH   8  10
ATOM     10  O   UNL     1      52.498  58.975  22.263  1.00  0.00    -0.391 OA
ATOM     11  H   UNL     1      51.654  59.383  21.999  1.00  0.00    +0.211 HD
ENDBRANCH   8  10
ENDBRANCH   7   8
BRANCH   7  12
ATOM     12  N   UNL     1      52.005  55.640  20.691  1.00  0.00    -0.309 N 
ATOM     13  C   UNL     1      52.011  55.935  19.348  1.00  0.00    +0.202 A 
ATOM     14  C   UNL     1      51.956  54.275  20.804  1.00  0.00    +0.165 A 
ATOM     15  N   UNL     1      51.998  54.853  18.600  1.00  0.00    -0.231 NA
ATOM     16  N   UNL     1      51.905  53.536  21.925  1.00  0.00    -0.217 NA
ATOM     17  C   UNL     1      51.965  53.808  19.500  1.00  0.00    +0.150 A 
ATOM     18  C   UNL     1      51.859  52.219  21.634  1.00  0.00    +0.226 A 
ATOM     19  C   UNL     1      51.926  52.414  19.325  1.00  0.00    +0.155 A 
ATOM     20  N   UNL     1      51.858  51.627  20.422  1.00  0.00    -0.217 NA
BRANCH  19  21
ATOM     21  N   UNL     1      51.931  51.803  18.077  1.00  0.00    -0.382 N 
ATOM     22  H   UNL     1      52.368  50.888  18.085  1.00  0.00    +0.158 HD
ATOM     23  H   UNL     1      52.195  52.445  17.341  1.00  0.00    +0.158 HD
ENDBRANCH  19  21
ENDBRANCH   7  12
ENDBRANCH   1   7
TORSDOF 8
ENDMDL
MODEL 2
REMARK VINA RESULT:    -7.533      1.710      2.808
REMARK INTER + INTRA:         -10.992
REMARK INTER:                 -10.528
REMARK INTRA:                  -0.464
REMARK UNBOUND:                -0.376
REMARK SMILES CCC/C=C/C[C@H]([C@H](C)O)n1cnc2c(N)ncnc21
REMARK SMILES IDX 6 1 5 2 4 3 3 4 2 5 1 6 7 7 8 8 9 9 10 10 11 12 12 13 20 14
REMARK SMILES IDX 13 15 19 16 14 17 18 18 15 19 17 20 16 21
REMARK H PARENT 10 11 16 22 16 23
ROOT
ATOM      1  C   UNL     1      49.919  55.090  20.297  1.00  0.00    +0.055 C 
ENDROOT
BRANCH   1   2
ATOM      2  C   UNL     1      49.337  56.400  20.767  1.00  0.00    -0.029 C 
ATOM      3  C   UNL     1      48.177  56.903  20.318  1.00  0.00    -0.031 C 
BRANCH   3   4
ATOM      4  C   UNL     1      47.515  58.192  20.733  1.00  0.00    +0.027 C 
BRANCH   4   5
ATOM      5  C   UNL     1      47.215  59.200  19.620  1.00  0.00    +0.001 C 
ATOM      6  C   UNL     1      47.629  58.663  18.258  1.00  0.00    +0.004 C 
ENDBRANCH   4   5
ENDBRANCH   3   4
ENDBRANCH   1   2
BRANCH   1   7
ATOM      7  C   UNL     1      51.361  54.858  20.802  1.00  0.00    +0.122 C 
BRANCH   7   8
ATOM      8  C   UNL     1      52.417  55.748  20.096  1.00  0.00    +0.134 C 
ATOM      9  C   UNL     1      52.737  57.067  20.790  1.00  0.00    +0.040 C 
BRANCH   8  10
ATOM     10  O   UNL     1      51.979  56.021  18.758  1.00  0.00    -0.391 OA
ATOM     11  H   UNL     1      51.337  55.332  18.509  1.00  0.00    +0.211 HD
ENDBRANCH   8  10
ENDBRANCH   7   8
BRANCH   7  12
ATOM     12  N   UNL     1      51.741  53.445  20.816  1.00  0.00    -0.309 N 
ATOM     13  C   UNL     1      51.800  52.666  21.948  1.00  0.00    +0.202 A 
ATOM     14  C   UNL     1      52.083  52.646  19.757  1.00  0.00    +0.165 A 
ATOM     15  N   UNL     1      52.129  51.421  21.679  1.00  0.00    -0.231 NA
ATOM     16  N   UNL     1      52.188  52.983  18.461  1.00  0.00    -0.217 NA
ATOM     17  C   UNL     1      52.306  51.395  20.312  1.00  0.00    +0.150 A 
ATOM     18  C   UNL     1      52.556  51.923  17.713  1.00  0.00    +0.226 A 
ATOM     19  C   UNL     1      52.674  50.367  19.427  1.00  0.00    +0.155 A 
ATOM     20  N   UNL     1      52.808  50.660  18.115  1.00  0.00    -0.217 NA
BRANCH  19  21
ATOM     21  N   UNL     1      52.929  49.064  19.840  1.00  0.00    -0.382 N 
ATOM     22  H   UNL     1      53.024  48.415  19.066  1.00  0.00    +0.158 HD
ATOM     23  H   UNL     1      52.341  48.790  20.616  1.00  0.00    +0.158 HD
ENDBRANCH  19  21
ENDBRANCH   7  12
ENDBRANCH   1   7
TORSDOF 8
ENDMDL
MODEL 3
REMARK VINA RESULT:    -6.933      3.953      6.884
REMARK INTER + INTRA:         -10.147
REMARK INTER:                  -9.425
REMARK INTRA:                  -0.722
REMARK UNBOUND:                -0.376
REMARK SMILES CCC/C=C/C[C@H]([C@H](C)O)n1cnc2c(N)ncnc21
REMARK SMILES IDX 6 1 5 2 4 3 3 4 2 5 1 6 7 7 8 8 9 9 10 10 11 12 12 13 20 14
REMARK SMILES IDX 13 15 19 16 14 17 18 18 15 19 17 20 16 21
REMARK H PARENT 10 11 16 22 16 23
ROOT
ATOM      1  C   UNL     1      50.847  49.681  20.457  1.00  0.00    +0.055 C 
ENDROOT
BRANCH   1   2
ATOM      2  C   UNL     1      49.688  48.908  19.877  1.00  0.00    -0.029 C 
ATOM      3  C   UNL     1      48.894  49.376  18.901  1.00  0.00    -0.031 C 
BRANCH   3   4
ATOM      4  C   UNL     1      47.726  48.677  18.256  1.00  0.00    +0.027 C 
BRANCH   4   5
ATOM      5  C   UNL     1      46.713  49.562  17.525  1.00  0.00    +0.001 C 
ATOM      6  C   UNL     1      45.316  48.962  17.572  1.00  0.00    +0.004 C 
ENDBRANCH   4   5
ENDBRANCH   3   4
ENDBRANCH   1   2
BRANCH   1   7
ATOM      7  C   UNL     1      51.190  50.948  19.641  1.00  0.00    +0.122 C 
BRANCH   7   8
ATOM      8  C   UNL     1      52.467  50.802  18.775  1.00  0.00    +0.134 C 
ATOM      9  C   UNL     1      52.248  50.837  17.266  1.00  0.00    +0.040 C 
BRANCH   8  10
ATOM     10  O   UNL     1      53.129  49.577  19.119  1.00  0.00    -0.391 OA
ATOM     11  H   UNL     1      53.244  49.060  18.302  1.00  0.00    +0.211 HD
ENDBRANCH   8  10
ENDBRANCH   7   8
BRANCH   7  12
ATOM     12  N   UNL     1      51.203  52.164  20.455  1.00  0.00    -0.309 N 
ATOM     13  C   UNL     1      51.714  52.243  21.729  1.00  0.00    +0.202 A 
ATOM     14  C   UNL     1      50.747  53.413  20.124  1.00  0.00    +0.165 A 
ATOM     15  N   UNL     1      51.638  53.461  22.222  1.00  0.00    -0.231 NA
ATOM     16  N   UNL     1      50.145  53.804  18.989  1.00  0.00    -0.217 NA
ATOM     17  C   UNL     1      51.038  54.202  21.226  1.00  0.00    +0.150 A 
ATOM     18  C   UNL     1      49.832  55.115  19.034  1.00  0.00    +0.226 A 
ATOM     19  C   UNL     1      50.672  55.557  21.149  1.00  0.00    +0.155 A 
ATOM     20  N   UNL     1      50.049  55.996  20.033  1.00  0.00    -0.217 NA
BRANCH  19  21
ATOM     21  N   UNL     1      50.901  56.466  22.175  1.00  0.00    -0.382 N 
ATOM     22  H   UNL     1      51.826  56.882  22.138  1.00  0.00    +0.158 HD
ATOM     23  H   UNL     1      50.575  56.121  23.068  1.00  0.00    +0.158 HD
ENDBRANCH  19  21
ENDBRANCH   7  12
ENDBRANCH   1   7
TORSDOF 8
ENDMDL
MODEL 4
REMARK VINA RESULT:    -6.795      4.320      6.993
REMARK INTER + INTRA:          -9.951
REMARK INTER:                  -9.184
REMARK INTRA:                  -0.767
REMARK UNBOUND:                -0.376
REMARK SMILES CCC/C=C/C[C@H]([C@H](C)O)n1cnc2c(N)ncnc21
REMARK SMILES IDX 6 1 5 2 4 3 3 4 2 5 1 6 7 7 8 8 9 9 10 10 11 12 12 13 20 14
REMARK SMILES IDX 13 15 19 16 14 17 18 18 15 19 17 20 16 21
REMARK H PARENT 10 11 16 22 16 23
ROOT
ATOM      1  C   UNL     1      50.254  50.609  18.267  1.00  0.00    +0.055 C 
ENDROOT
BRANCH   1   2
ATOM      2  C   UNL     1      49.295  49.617  18.878  1.00  0.00    -0.029 C 
ATOM      3  C   UNL     1      48.184  49.180  18.263  1.00  0.00    -0.031 C 
BRANCH   3   4
ATOM      4  C   UNL     1      47.176  48.190  18.788  1.00  0.00    +0.027 C 
BRANCH   4   5
ATOM      5  C   UNL     1      45.718  48.411  18.378  1.00  0.00    +0.001 C 
ATOM      6  C   UNL     1      45.614  49.329  17.170  1.00  0.00    +0.004 C 
ENDBRANCH   4   5
ENDBRANCH   3   4
ENDBRANCH   1   2
BRANCH   1   7
ATOM      7  C   UNL     1      49.717  52.057  18.294  1.00  0.00    +0.122 C 
BRANCH   7   8
ATOM      8  C   UNL     1      48.984  52.473  16.992  1.00  0.00    +0.134 C 
ATOM      9  C   UNL     1      47.470  52.609  17.104  1.00  0.00    +0.040 C 
BRANCH   8  10
ATOM     10  O   UNL     1      49.291  51.525  15.960  1.00  0.00    -0.391 OA
ATOM     11  H   UNL     1      50.019  51.891  15.427  1.00  0.00    +0.211 HD
ENDBRANCH   8  10
ENDBRANCH   7   8
BRANCH   7  12
ATOM     12  N   UNL     1      50.728  53.033  18.701  1.00  0.00    -0.309 N 
ATOM     13  C   UNL     1      52.078  52.895  18.477  1.00  0.00    +0.202 A 
ATOM     14  C   UNL     1      50.546  54.230  19.343  1.00  0.00    +0.165 A 
ATOM     15  N   UNL     1      52.763  53.933  18.907  1.00  0.00    -0.231 NA
ATOM     16  N   UNL     1      49.397  54.769  19.784  1.00  0.00    -0.217 NA
ATOM     17  C   UNL     1      51.815  54.776  19.449  1.00  0.00    +0.150 A 
ATOM     18  C   UNL     1      49.618  55.961  20.375  1.00  0.00    +0.226 A 
ATOM     19  C   UNL     1      51.915  56.029  20.076  1.00  0.00    +0.155 A 
ATOM     20  N   UNL     1      50.789  56.607  20.551  1.00  0.00    -0.217 NA
BRANCH  19  21
ATOM     21  N   UNL     1      53.121  56.697  20.252  1.00  0.00    -0.382 N 
ATOM     22  H   UNL     1      53.538  56.530  21.162  1.00  0.00    +0.158 HD
ATOM     23  H   UNL     1      53.078  57.652  19.921  1.00  0.00    +0.158 HD
ENDBRANCH  19  21
ENDBRANCH   7  12
ENDBRANCH   1   7
TORSDOF 8
ENDMDL
MODEL 5
REMARK VINA RESULT:    -6.579      1.516      2.195
REMARK INTER + INTRA:          -9.647
REMARK INTER:                  -9.402
REMARK INTRA:                  -0.245
REMARK UNBOUND:                -0.376
REMARK SMILES CCC/C=C/C[C@H]([C@H](C)O)n1cnc2c(N)ncnc21
REMARK SMILES IDX 6 1 5 2 4 3 3 4 2 5 1 6 7 7 8 8 9 9 10 10 11 12 12 13 20 14
REMARK SMILES IDX 13 15 19 16 14 17 18 18 15 19 17 20 16 21
REMARK H PARENT 10 11 16 22 16 23
ROOT
ATOM      1  C   UNL     1      48.114  56.883  20.416  1.00  0.00    +0.055 C 
ENDROOT
BRANCH   1   2
ATOM      2  C   UNL     1      48.198  58.177  19.643  1.00  0.00    -0.029 C 
ATOM      3  C   UNL     1      47.231  59.108  19.644  1.00  0.00    -0.031 C 
BRANCH   3   4
ATOM      4  C   UNL     1      47.229  60.427  18.915  1.00  0.00    +0.027 C 
BRANCH   4   5
ATOM      5  C   UNL     1      46.040  61.356  19.177  1.00  0.00    +0.001 C 
ATOM      6  C   UNL     1      46.485  62.655  19.831  1.00  0.00    +0.004 C 
ENDBRANCH   4   5
ENDBRANCH   3   4
ENDBRANCH   1   2
BRANCH   1   7
ATOM      7  C   UNL     1      49.502  56.329  20.808  1.00  0.00    +0.122 C 
BRANCH   7   8
ATOM      8  C   UNL     1      50.636  57.383  20.734  1.00  0.00    +0.134 C 
ATOM      9  C   UNL     1      51.965  56.883  20.178  1.00  0.00    +0.040 C 
BRANCH   8  10
ATOM     10  O   UNL     1      50.856  57.927  22.043  1.00  0.00    -0.391 OA
ATOM     11  H   UNL     1      50.153  57.590  22.626  1.00  0.00    +0.211 HD
ENDBRANCH   8  10
ENDBRANCH   7   8
BRANCH   7  12
ATOM     12  N   UNL     1      49.842  55.092  20.104  1.00  0.00    -0.309 N 
ATOM     13  C   UNL     1      49.498  54.818  18.800  1.00  0.00    +0.202 A 
ATOM     14  C   UNL     1      50.550  54.015  20.569  1.00  0.00    +0.165 A 
ATOM     15  N   UNL     1      49.961  53.655  18.397  1.00  0.00    -0.231 NA
ATOM     16  N   UNL     1      51.064  53.826  21.796  1.00  0.00    -0.217 NA
ATOM     17  C   UNL     1      50.623  53.144  19.494  1.00  0.00    +0.150 A 
ATOM     18  C   UNL     1      51.690  52.635  21.880  1.00  0.00    +0.226 A 
ATOM     19  C   UNL     1      51.313  51.937  19.702  1.00  0.00    +0.155 A 
ATOM     20  N   UNL     1      51.835  51.693  20.925  1.00  0.00    -0.217 NA
BRANCH  19  21
ATOM     21  N   UNL     1      51.467  50.970  18.716  1.00  0.00    -0.382 N 
ATOM     22  H   UNL     1      52.439  50.746  18.528  1.00  0.00    +0.158 HD
ATOM     23  H   UNL     1      50.860  51.134  17.925  1.00  0.00    +0.158 HD
ENDBRANCH  19  21
ENDBRANCH   7  12
ENDBRANCH   1   7
TORSDOF 8
ENDMDL
