MODEL 1
REMARK VINA RESULT:    -7.118      0.000      0.000
REMARK INTER + INTRA:         -10.597
REMARK INTER:                 -10.031
REMARK INTRA:                  -0.567
REMARK UNBOUND:                -0.567
REMARK SMILES CCC/C=C\C[C@H]([C@H](C)O)n1cnc2c(N)ncnc21
REMARK SMILES IDX 6 1 5 2 4 3 3 4 2 5 1 6 7 7 8 8 9 9 10 10 11 12 12 13 20 14
REMARK SMILES IDX 13 15 19 16 14 17 18 18 15 19 17 20 16 21
REMARK H PARENT 10 11 16 22 16 23
ROOT
ATOM      1  C   UNL     1      49.454  51.528  18.281  1.00  0.00    +0.055 C 
ENDROOT
BRANCH   1   2
ATOM      2  C   UNL     1      49.426  50.274  17.448  1.00  0.00    -0.029 C 
ATOM      3  C   UNL     1      48.746  49.141  17.685  1.00  0.00    -0.031 C 
BRANCH   3   4
ATOM      4  C   UNL     1      47.798  48.853  18.815  1.00  0.00    +0.027 C 
BRANCH   4   5
ATOM      5  C   UNL     1      46.414  48.402  18.339  1.00  0.00    +0.001 C 
ATOM      6  C   UNL     1      45.725  49.407  17.428  1.00  0.00    +0.004 C 
ENDBRANCH   4   5
ENDBRANCH   3   4
ENDBRANCH   1   2
BRANCH   1   7
ATOM      7  C   UNL     1      50.809  52.266  18.413  1.00  0.00    +0.122 C 
BRANCH   7   8
ATOM      8  C   UNL     1      52.078  51.488  17.974  1.00  0.00    +0.134 C 
ATOM      9  C   UNL     1      52.648  50.630  19.100  1.00  0.00    +0.040 C 
BRANCH   8  10
ATOM     10  O   UNL     1      53.105  52.356  17.504  1.00  0.00    -0.391 OA
ATOM     11  H   UNL     1      53.965  51.937  17.687  1.00  0.00    +0.211 HD
ENDBRANCH   8  10
ENDBRANCH   7   8
BRANCH   7  12
ATOM     12  N   UNL     1      50.964  52.891  19.727  1.00  0.00    -0.309 N 
ATOM     13  C   UNL     1      50.668  52.346  20.950  1.00  0.00    +0.202 A 
ATOM     14  C   UNL     1      51.454  54.151  19.951  1.00  0.00    +0.165 A 
ATOM     15  N   UNL     1      50.937  53.173  21.941  1.00  0.00    -0.231 NA
ATOM     16  N   UNL     1      51.878  55.044  19.041  1.00  0.00    -0.217 NA
ATOM     17  C   UNL     1      51.417  54.310  21.327  1.00  0.00    +0.150 A 
ATOM     18  C   UNL     1      52.294  56.179  19.641  1.00  0.00    +0.226 A 
ATOM     19  C   UNL     1      51.869  55.541  21.831  1.00  0.00    +0.155 A 
ATOM     20  N   UNL     1      52.324  56.470  20.960  1.00  0.00    -0.217 NA
BRANCH  19  21
ATOM     21  N   UNL     1      51.892  55.845  23.187  1.00  0.00    -0.382 N 
ATOM     22  H   UNL     1      51.404  56.705  23.414  1.00  0.00    +0.158 HD
ATOM     23  H   UNL     1      51.716  55.033  23.764  1.00  0.00    +0.158 HD
ENDBRANCH  19  21
ENDBRANCH   7  12
ENDBRANCH   1   7
TORSDOF 8
ENDMDL
MODEL 2
REMARK VINA RESULT:    -7.051      3.575      6.649
REMARK INTER + INTRA:         -10.503
REMARK INTER:                 -10.003
REMARK INTRA:                  -0.500
REMARK UNBOUND:                -0.567
REMARK SMILES CCC/C=C\C[C@H]([C@H](C)O)n1cnc2c(N)ncnc21
REMARK SMILES IDX 6 1 5 2 4 3 3 4 2 5 1 6 7 7 8 8 9 9 10 10 11 12 12 13 20 14
REMARK SMILES IDX 13 15 19 16 14 17 18 18 15 19 17 20 16 21
REMARK H PARENT 10 11 16 22 16 23
ROOT
ATOM      1  C   UNL     1      49.343  56.358  20.916  1.00  0.00    +0.055 C 
ENDROOT
BRANCH   1   2
ATOM      2  C   UNL     1      49.034  57.684  21.560  1.00  0.00    -0.029 C 
ATOM      3  C   UNL     1      48.143  58.606  21.160  1.00  0.00    -0.031 C 
BRANCH   3   4
ATOM      4  C   UNL     1      47.190  58.527  20.002  1.00  0.00    +0.027 C 
BRANCH   4   5
ATOM      5  C   UNL     1      47.433  59.609  18.947  1.00  0.00    +0.001 C 
ATOM      6  C   UNL     1      46.638  60.884  19.188  1.00  0.00    +0.004 C 
ENDBRANCH   4   5
ENDBRANCH   3   4
ENDBRANCH   1   2
BRANCH   1   7
ATOM      7  C   UNL     1      50.595  55.597  21.419  1.00  0.00    +0.122 C 
BRANCH   7   8
ATOM      8  C   UNL     1      51.736  56.451  22.034  1.00  0.00    +0.134 C 
ATOM      9  C   UNL     1      52.793  56.833  21.001  1.00  0.00    +0.040 C 
BRANCH   8  10
ATOM     10  O   UNL     1      52.382  55.787  23.117  1.00  0.00    -0.391 OA
ATOM     11  H   UNL     1      53.256  55.487  22.811  1.00  0.00    +0.211 HD
ENDBRANCH   8  10
ENDBRANCH   7   8
BRANCH   7  12
ATOM     12  N   UNL     1      51.087  54.640  20.428  1.00  0.00    -0.309 N 
ATOM     13  C   UNL     1      51.166  54.812  19.070  1.00  0.00    +0.202 A 
ATOM     14  C   UNL     1      51.570  53.388  20.708  1.00  0.00    +0.165 A 
ATOM     15  N   UNL     1      51.668  53.755  18.463  1.00  0.00    -0.231 NA
ATOM     16  N   UNL     1      51.687  52.800  21.910  1.00  0.00    -0.217 NA
ATOM     17  C   UNL     1      51.913  52.853  19.477  1.00  0.00    +0.150 A 
ATOM     18  C   UNL     1      52.210  51.562  21.789  1.00  0.00    +0.226 A 
ATOM     19  C   UNL     1      52.439  51.550  19.481  1.00  0.00    +0.155 A 
ATOM     20  N   UNL     1      52.596  50.919  20.666  1.00  0.00    -0.217 NA
BRANCH  19  21
ATOM     21  N   UNL     1      52.828  50.884  18.325  1.00  0.00    -0.382 N 
ATOM     22  H   UNL     1      53.452  50.105  18.502  1.00  0.00    +0.158 HD
ATOM     23  H   UNL     1      52.055  50.737  17.689  1.00  0.00    +0.158 HD
ENDBRANCH  19  21
ENDBRANCH   7  12
ENDBRANCH   1   7
TORSDOF 8
ENDMDL
MODEL 3
REMARK VINA RESULT:    -7.030      2.956      6.186
REMARK INTER + INTRA:         -10.473
REMARK INTER:                  -9.906
REMARK INTRA:                  -0.567
REMARK UNBOUND:                -0.567
REMARK SMILES CCC/C=C\C[C@H]([C@H](C)O)n1cnc2c(N)ncnc21
REMARK SMILES IDX 6 1 5 2 4 3 3 4 2 5 1 6 7 7 8 8 9 9 10 10 11 12 12 13 20 14
REMARK SMILES IDX 13 15 19 16 14 17 18 18 15 19 17 20 16 21
REMARK H PARENT 10 11 16 22 16 23
ROOT
ATOM      1  C   UNL     1      49.975  55.923  20.869  1.00  0.00    +0.055 C 
ENDROOT
BRANCH   1   2
ATOM      2  C   UNL     1      49.767  57.184  21.666  1.00  0.00    -0.029 C 
ATOM      3  C   UNL     1      48.754  58.061  21.573  1.00  0.00    -0.031 C 
BRANCH   3   4
ATOM      4  C   UNL     1      47.542  57.980  20.689  1.00  0.00    +0.027 C 
BRANCH   4   5
ATOM      5  C   UNL     1      47.780  58.549  19.288  1.00  0.00    +0.001 C 
ATOM      6  C   UNL     1      47.111  59.895  19.055  1.00  0.00    +0.004 C 
ENDBRANCH   4   5
ENDBRANCH   3   4
ENDBRANCH   1   2
BRANCH   1   7
ATOM      7  C   UNL     1      51.363  55.241  20.963  1.00  0.00    +0.122 C 
BRANCH   7   8
ATOM      8  C   UNL     1      52.469  55.768  20.010  1.00  0.00    +0.134 C 
ATOM      9  C   UNL     1      53.166  57.008  20.564  1.00  0.00    +0.040 C 
BRANCH   8  10
ATOM     10  O   UNL     1      51.961  56.076  18.715  1.00  0.00    -0.391 OA
ATOM     11  H   UNL     1      52.191  57.000  18.511  1.00  0.00    +0.211 HD
ENDBRANCH   8  10
ENDBRANCH   7   8
BRANCH   7  12
ATOM     12  N   UNL     1      51.256  53.782  20.941  1.00  0.00    -0.309 N 
ATOM     13  C   UNL     1      51.631  52.903  21.924  1.00  0.00    +0.202 A 
ATOM     14  C   UNL     1      50.741  53.042  19.908  1.00  0.00    +0.165 A 
ATOM     15  N   UNL     1      51.389  51.651  21.591  1.00  0.00    -0.231 NA
ATOM     16  N   UNL     1      50.244  53.488  18.743  1.00  0.00    -0.217 NA
ATOM     17  C   UNL     1      50.844  51.725  20.326  1.00  0.00    +0.150 A 
ATOM     18  C   UNL     1      49.826  52.460  17.976  1.00  0.00    +0.226 A 
ATOM     19  C   UNL     1      50.382  50.743  19.434  1.00  0.00    +0.155 A 
ATOM     20  N   UNL     1      49.854  51.138  18.253  1.00  0.00    -0.217 NA
BRANCH  19  21
ATOM     21  N   UNL     1      50.419  49.383  19.715  1.00  0.00    -0.382 N 
ATOM     22  H   UNL     1      49.524  49.011  20.015  1.00  0.00    +0.158 HD
ATOM     23  H   UNL     1      50.940  48.863  19.020  1.00  0.00    +0.158 HD
ENDBRANCH  19  21
ENDBRANCH   7  12
ENDBRANCH   1   7
TORSDOF 8
ENDMDL
MODEL 4
REMARK VINA RESULT:    -7.016      3.336      5.787
REMARK INTER + INTRA:         -10.453
REMARK INTER:                 -10.152
REMARK INTRA:                  -0.301
REMARK UNBOUND:                -0.567
REMARK SMILES CCC/C=C\C[C@H]([C@H](C)O)n1cnc2c(N)ncnc21
REMARK SMILES IDX 6 1 5 2 4 3 3 4 2 5 1 6 7 7 8 8 9 9 10 10 11 12 12 13 20 14
REMARK SMILES IDX 13 15 19 16 14 17 18 18 15 19 17 20 16 21
REMARK H PARENT 10 11 16 22 16 23
ROOT
ATOM      1  C   UNL     1      50.183  54.879  19.419  1.00  0.00    +0.055 C 
ENDROOT
BRANCH   1   2
ATOM      2  C   UNL     1      48.683  54.857  19.553  1.00  0.00    -0.029 C 
ATOM      3  C   UNL     1      47.853  55.901  19.708  1.00  0.00    -0.031 C 
BRANCH   3   4
ATOM      4  C   UNL     1      48.204  57.362  19.736  1.00  0.00    +0.027 C 
BRANCH   4   5
ATOM      5  C   UNL     1      47.850  58.042  21.061  1.00  0.00    +0.001 C 
ATOM      6  C   UNL     1      49.048  58.259  21.974  1.00  0.00    +0.004 C 
ENDBRANCH   4   5
ENDBRANCH   3   4
ENDBRANCH   1   2
BRANCH   1   7
ATOM      7  C   UNL     1      51.016  54.647  20.705  1.00  0.00    +0.122 C 
BRANCH   7   8
ATOM      8  C   UNL     1      52.143  55.670  21.005  1.00  0.00    +0.134 C 
ATOM      9  C   UNL     1      52.046  56.239  22.419  1.00  0.00    +0.040 C 
BRANCH   8  10
ATOM     10  O   UNL     1      52.144  56.756  20.082  1.00  0.00    -0.391 OA
ATOM     11  H   UNL     1      51.775  56.437  19.239  1.00  0.00    +0.211 HD
ENDBRANCH   8  10
ENDBRANCH   7   8
BRANCH   7  12
ATOM     12  N   UNL     1      51.476  53.262  20.813  1.00  0.00    -0.309 N 
ATOM     13  C   UNL     1      51.573  52.501  21.950  1.00  0.00    +0.202 A 
ATOM     14  C   UNL     1      51.887  52.481  19.764  1.00  0.00    +0.165 A 
ATOM     15  N   UNL     1      52.016  51.286  21.698  1.00  0.00    -0.231 NA
ATOM     16  N   UNL     1      51.949  52.813  18.464  1.00  0.00    -0.217 NA
ATOM     17  C   UNL     1      52.227  51.266  20.336  1.00  0.00    +0.150 A 
ATOM     18  C   UNL     1      52.400  51.778  17.726  1.00  0.00    +0.226 A 
ATOM     19  C   UNL     1      52.694  50.268  19.463  1.00  0.00    +0.155 A 
ATOM     20  N   UNL     1      52.759  50.543  18.141  1.00  0.00    -0.217 NA
BRANCH  19  21
ATOM     21  N   UNL     1      53.071  49.000  19.890  1.00  0.00    -0.382 N 
ATOM     22  H   UNL     1      52.287  48.371  20.020  1.00  0.00    +0.158 HD
ATOM     23  H   UNL     1      53.880  48.654  19.390  1.00  0.00    +0.158 HD
ENDBRANCH  19  21
ENDBRANCH   7  12
ENDBRANCH   1   7
TORSDOF 8
ENDMDL
MODEL 5
REMARK VINA RESULT:    -7.002      2.382      3.698
REMARK INTER + INTRA:         -10.435
REMARK INTER:                  -9.939
REMARK INTRA:                  -0.496
REMARK UNBOUND:                -0.567
REMARK SMILES CCC/C=C\C[C@H]([C@H](C)O)n1cnc2c(N)ncnc21
REMARK SMILES IDX 6 1 5 2 4 3 3 4 2 5 1 6 7 7 8 8 9 9 10 10 11 12 12 13 20 14
REMARK SMILES IDX 13 15 19 16 14 17 18 18 15 19 17 20 16 21
REMARK H PARENT 10 11 16 22 16 23
ROOT
ATOM      1  C   UNL     1      47.717  49.498  16.719  1.00  0.00    +0.055 C 
ENDROOT
BRANCH   1   2
ATOM      2  C   UNL     1      46.465  50.076  17.324  1.00  0.00    -0.029 C 
ATOM      3  C   UNL     1      45.277  49.474  17.495  1.00  0.00    -0.031 C 
BRANCH   3   4
ATOM      4  C   UNL     1      44.909  48.053  17.175  1.00  0.00    +0.027 C 
BRANCH   4   5
ATOM      5  C   UNL     1      45.390  47.054  18.231  1.00  0.00    +0.001 C 
ATOM      6  C   UNL     1      44.611  47.125  19.536  1.00  0.00    +0.004 C 
ENDBRANCH   4   5
ENDBRANCH   3   4
ENDBRANCH   1   2
BRANCH   1   7
ATOM      7  C   UNL     1      49.003  50.360  16.781  1.00  0.00    +0.122 C 
BRANCH   7   8
ATOM      8  C   UNL     1      49.958  50.282  15.560  1.00  0.00    +0.134 C 
ATOM      9  C   UNL     1      49.730  49.025  14.726  1.00  0.00    +0.040 C 
BRANCH   8  10
ATOM     10  O   UNL     1      51.329  50.325  15.947  1.00  0.00    -0.391 OA
ATOM     11  H   UNL     1      51.374  50.618  16.875  1.00  0.00    +0.211 HD
ENDBRANCH   8  10
ENDBRANCH   7   8
BRANCH   7  12
ATOM     12  N   UNL     1      49.708  50.198  18.052  1.00  0.00    -0.309 N 
ATOM     13  C   UNL     1      49.724  49.093  18.863  1.00  0.00    +0.202 A 
ATOM     14  C   UNL     1      50.493  51.151  18.648  1.00  0.00    +0.165 A 
ATOM     15  N   UNL     1      50.469  49.273  19.935  1.00  0.00    -0.231 NA
ATOM     16  N   UNL     1      50.770  52.387  18.202  1.00  0.00    -0.217 NA
ATOM     17  C   UNL     1      50.945  50.561  19.817  1.00  0.00    +0.150 A 
ATOM     18  C   UNL     1      51.585  53.035  19.059  1.00  0.00    +0.226 A 
ATOM     19  C   UNL     1      51.783  51.341  20.633  1.00  0.00    +0.155 A 
ATOM     20  N   UNL     1      52.108  52.588  20.222  1.00  0.00    -0.217 NA
BRANCH  19  21
ATOM     21  N   UNL     1      52.313  50.885  21.834  1.00  0.00    -0.382 N 
ATOM     22  H   UNL     1      53.142  51.393  22.124  1.00  0.00    +0.158 HD
ATOM     23  H   UNL     1      51.597  50.711  22.526  1.00  0.00    +0.158 HD
ENDBRANCH  19  21
ENDBRANCH   7  12
ENDBRANCH   1   7
TORSDOF 8
ENDMDL
