MODEL 1
REMARK VINA RESULT:    -9.520      0.000      0.000
REMARK INTER + INTRA:         -17.420
REMARK INTER:                 -15.364
REMARK INTRA:                  -2.056
REMARK UNBOUND:                -2.056
REMARK SMILES Cn1c(CCC(=O)Nc2ccc3ccn(CC[C@H](CO)n4cnc(C(N)=O)c4)c3c2)nc2ccccc21
REMARK SMILES IDX 9 1 10 2 11 3 12 4 13 5 14 6 15 7 29 8 30 9 8 10 6 11 7 12
REMARK SMILES IDX 5 14 4 15 3 16 2 17 37 18 31 19 36 20 32 21 35 22 33 23
REMARK SMILES IDX 34 24 1 25 16 26 17 27 18 28 19 29 20 30 21 32 22 33 28 34
REMARK SMILES IDX 23 35 24 36 25 37 26 38 27 39
REMARK H PARENT 8 13 20 31 26 40 26 41
ROOT
ATOM      1  C   UNL     1      48.677  53.056  17.827  1.00  0.00    +0.043 A 
ATOM      2  C   UNL     1      48.160  53.388  16.578  1.00  0.00    +0.027 A 
ATOM      3  C   UNL     1      47.864  54.719  16.244  1.00  0.00    +0.012 A 
ATOM      4  C   UNL     1      48.072  55.740  17.191  1.00  0.00    -0.000 A 
ATOM      5  C   UNL     1      47.876  57.148  17.179  1.00  0.00    +0.028 A 
ATOM      6  C   UNL     1      48.244  57.629  18.416  1.00  0.00    +0.087 A 
ATOM      7  N   UNL     1      48.649  56.566  19.183  1.00  0.00    -0.347 N 
ATOM      8  C   UNL     1      48.582  55.398  18.448  1.00  0.00    +0.050 A 
ATOM      9  C   UNL     1      48.899  54.067  18.776  1.00  0.00    +0.053 A 
ENDROOT
BRANCH   1  10
ATOM     10  N   UNL     1      48.973  51.736  18.235  1.00  0.00    -0.326 N 
ATOM     11  C   UNL     1      50.183  51.066  18.142  1.00  0.00    +0.224 C 
ATOM     12  O   UNL     1      51.247  51.531  17.740  1.00  0.00    -0.275 OA
ATOM     13  H   UNL     1      48.230  51.242  18.709  1.00  0.00    +0.169 HD
BRANCH  11  14
ATOM     14  C   UNL     1      50.045  49.589  18.476  1.00  0.00    +0.108 C 
BRANCH  14  15
ATOM     15  C   UNL     1      48.619  49.203  18.858  1.00  0.00    +0.085 C 
BRANCH  15  16
ATOM     16  C   UNL     1      47.805  48.854  17.645  1.00  0.00    +0.110 A 
ATOM     17  N   UNL     1      46.573  48.233  17.694  1.00  0.00    -0.331 N 
ATOM     18  C   UNL     1      46.117  48.083  16.403  1.00  0.00    +0.068 A 
ATOM     19  N   UNL     1      48.155  49.102  16.393  1.00  0.00    -0.233 NA
ATOM     20  C   UNL     1      44.957  47.524  15.850  1.00  0.00    +0.028 A 
ATOM     21  C   UNL     1      47.123  48.644  15.616  1.00  0.00    +0.089 A 
ATOM     22  C   UNL     1      44.836  47.553  14.454  1.00  0.00    +0.002 A 
ATOM     23  C   UNL     1      46.983  48.669  14.218  1.00  0.00    +0.030 A 
ATOM     24  C   UNL     1      45.829  48.119  13.648  1.00  0.00    +0.002 A 
ATOM     25  C   UNL     1      45.881  47.822  18.897  1.00  0.00    +0.151 C 
ENDBRANCH  15  16
ENDBRANCH  14  15
ENDBRANCH  11  14
ENDBRANCH   1  10
BRANCH   7  26
ATOM     26  C   UNL     1      49.094  56.686  20.557  1.00  0.00    +0.124 C 
BRANCH  26  27
ATOM     27  C   UNL     1      50.349  57.538  20.766  1.00  0.00    +0.050 C 
BRANCH  27  28
ATOM     28  C   UNL     1      51.425  56.893  21.671  1.00  0.00    +0.115 C 
BRANCH  28  29
ATOM     29  C   UNL     1      52.723  57.712  21.832  1.00  0.00    +0.181 C 
BRANCH  29  30
ATOM     30  O   UNL     1      53.648  57.072  22.710  1.00  0.00    -0.394 OA
ATOM     31  H   UNL     1      53.243  56.224  22.978  1.00  0.00    +0.210 HD
ENDBRANCH  29  30
ENDBRANCH  28  29
BRANCH  28  32
ATOM     32  N   UNL     1      51.749  55.541  21.198  1.00  0.00    -0.331 N 
ATOM     33  C   UNL     1      52.248  55.227  19.967  1.00  0.00    +0.200 A 
ATOM     34  C   UNL     1      51.585  54.367  21.884  1.00  0.00    +0.121 A 
ATOM     35  N   UNL     1      52.398  53.928  19.827  1.00  0.00    -0.232 NA
ATOM     36  C   UNL     1      51.975  53.357  21.017  1.00  0.00    +0.145 A 
BRANCH  36  37
ATOM     37  C   UNL     1      51.965  51.907  21.253  1.00  0.00    +0.268 C 
ATOM     38  N   UNL     1      50.991  51.435  22.096  1.00  0.00    -0.364 N 
ATOM     39  O   UNL     1      52.746  51.114  20.734  1.00  0.00    -0.268 OA
ATOM     40  H   UNL     1      50.899  50.432  22.142  1.00  0.00    +0.160 HD
ATOM     41  H   UNL     1      50.211  52.011  22.379  1.00  0.00    +0.160 HD
ENDBRANCH  36  37
ENDBRANCH  28  32
ENDBRANCH  27  28
ENDBRANCH  26  27
ENDBRANCH   7  26
TORSDOF 11
ENDMDL
MODEL 2
REMARK VINA RESULT:    -9.313      5.243     10.752
REMARK INTER + INTRA:         -17.085
REMARK INTER:                 -15.972
REMARK INTRA:                  -1.114
REMARK UNBOUND:                -2.056
REMARK SMILES Cn1c(CCC(=O)Nc2ccc3ccn(CC[C@H](CO)n4cnc(C(N)=O)c4)c3c2)nc2ccccc21
REMARK SMILES IDX 9 1 10 2 11 3 12 4 13 5 14 6 15 7 29 8 30 9 8 10 6 11 7 12
REMARK SMILES IDX 5 14 4 15 3 16 2 17 37 18 31 19 36 20 32 21 35 22 33 23
REMARK SMILES IDX 34 24 1 25 16 26 17 27 18 28 19 29 20 30 21 32 22 33 28 34
REMARK SMILES IDX 23 35 24 36 25 37 26 38 27 39
REMARK H PARENT 8 13 20 31 26 40 26 41
ROOT
ATOM      1  C   UNL     1      47.844  58.145  19.972  1.00  0.00    +0.043 A 
ATOM      2  C   UNL     1      48.540  58.210  21.176  1.00  0.00    +0.027 A 
ATOM      3  C   UNL     1      49.459  57.212  21.540  1.00  0.00    +0.012 A 
ATOM      4  C   UNL     1      49.670  56.112  20.686  1.00  0.00    -0.000 A 
ATOM      5  C   UNL     1      50.499  54.960  20.755  1.00  0.00    +0.028 A 
ATOM      6  C   UNL     1      50.268  54.214  19.620  1.00  0.00    +0.087 A 
ATOM      7  N   UNL     1      49.324  54.866  18.867  1.00  0.00    -0.347 N 
ATOM      8  C   UNL     1      48.960  56.048  19.483  1.00  0.00    +0.050 A 
ATOM      9  C   UNL     1      48.055  57.058  19.107  1.00  0.00    +0.053 A 
ENDROOT
BRANCH   1  10
ATOM     10  N   UNL     1      46.890  59.101  19.557  1.00  0.00    -0.326 N 
ATOM     11  C   UNL     1      47.098  60.234  18.787  1.00  0.00    +0.224 C 
ATOM     12  O   UNL     1      48.156  60.581  18.267  1.00  0.00    -0.275 OA
ATOM     13  H   UNL     1      45.930  58.900  19.798  1.00  0.00    +0.169 HD
BRANCH  11  14
ATOM     14  C   UNL     1      45.870  61.130  18.746  1.00  0.00    +0.108 C 
BRANCH  14  15
ATOM     15  C   UNL     1      46.090  62.463  19.457  1.00  0.00    +0.085 C 
BRANCH  15  16
ATOM     16  C   UNL     1      45.199  63.534  18.896  1.00  0.00    +0.110 A 
ATOM     17  N   UNL     1      45.595  64.443  17.936  1.00  0.00    -0.331 N 
ATOM     18  C   UNL     1      44.525  65.262  17.652  1.00  0.00    +0.068 A 
ATOM     19  N   UNL     1      43.937  63.734  19.238  1.00  0.00    -0.233 NA
ATOM     20  C   UNL     1      44.345  66.347  16.784  1.00  0.00    +0.028 A 
ATOM     21  C   UNL     1      43.503  64.787  18.474  1.00  0.00    +0.089 A 
ATOM     22  C   UNL     1      43.078  66.948  16.765  1.00  0.00    +0.002 A 
ATOM     23  C   UNL     1      42.238  65.398  18.439  1.00  0.00    +0.030 A 
ATOM     24  C   UNL     1      42.038  66.482  17.575  1.00  0.00    +0.002 A 
ATOM     25  C   UNL     1      46.908  64.513  17.329  1.00  0.00    +0.151 C 
ENDBRANCH  15  16
ENDBRANCH  14  15
ENDBRANCH  11  14
ENDBRANCH   1  10
BRANCH   7  26
ATOM     26  C   UNL     1      48.814  54.368  17.606  1.00  0.00    +0.124 C 
BRANCH  26  27
ATOM     27  C   UNL     1      48.122  53.004  17.673  1.00  0.00    +0.050 C 
BRANCH  27  28
ATOM     28  C   UNL     1      48.855  51.869  16.921  1.00  0.00    +0.115 C 
BRANCH  28  29
ATOM     29  C   UNL     1      47.958  50.989  16.024  1.00  0.00    +0.181 C 
BRANCH  29  30
ATOM     30  O   UNL     1      48.683  50.441  14.924  1.00  0.00    -0.394 OA
ATOM     31  H   UNL     1      49.587  50.256  15.246  1.00  0.00    +0.210 HD
ENDBRANCH  29  30
ENDBRANCH  28  29
BRANCH  28  32
ATOM     32  N   UNL     1      49.592  51.020  17.866  1.00  0.00    -0.331 N 
ATOM     33  C   UNL     1      49.091  49.922  18.507  1.00  0.00    +0.200 A 
ATOM     34  C   UNL     1      50.882  51.187  18.293  1.00  0.00    +0.121 A 
ATOM     35  N   UNL     1      49.980  49.394  19.319  1.00  0.00    -0.232 NA
ATOM     36  C   UNL     1      51.117  50.179  19.216  1.00  0.00    +0.145 A 
BRANCH  36  37
ATOM     37  C   UNL     1      52.340  49.929  19.992  1.00  0.00    +0.268 C 
ATOM     38  N   UNL     1      52.758  48.624  20.061  1.00  0.00    -0.364 N 
ATOM     39  O   UNL     1      53.000  50.802  20.546  1.00  0.00    -0.268 OA
ATOM     40  H   UNL     1      53.668  48.476  20.471  1.00  0.00    +0.160 HD
ATOM     41  H   UNL     1      52.372  47.911  19.460  1.00  0.00    +0.160 HD
ENDBRANCH  36  37
ENDBRANCH  28  32
ENDBRANCH  27  28
ENDBRANCH  26  27
ENDBRANCH   7  26
TORSDOF 11
ENDMDL
MODEL 3
REMARK VINA RESULT:    -9.140      2.259      8.609
REMARK INTER + INTRA:         -16.806
REMARK INTER:                 -15.644
REMARK INTRA:                  -1.162
REMARK UNBOUND:                -2.056
REMARK SMILES Cn1c(CCC(=O)Nc2ccc3ccn(CC[C@H](CO)n4cnc(C(N)=O)c4)c3c2)nc2ccccc21
REMARK SMILES IDX 9 1 10 2 11 3 12 4 13 5 14 6 15 7 29 8 30 9 8 10 6 11 7 12
REMARK SMILES IDX 5 14 4 15 3 16 2 17 37 18 31 19 36 20 32 21 35 22 33 23
REMARK SMILES IDX 34 24 1 25 16 26 17 27 18 28 19 29 20 30 21 32 22 33 28 34
REMARK SMILES IDX 23 35 24 36 25 37 26 38 27 39
REMARK H PARENT 8 13 20 31 26 40 26 41
ROOT
ATOM      1  C   UNL     1      51.124  53.601  20.534  1.00  0.00    +0.043 A 
ATOM      2  C   UNL     1      51.963  52.933  21.422  1.00  0.00    +0.027 A 
ATOM      3  C   UNL     1      52.040  51.531  21.435  1.00  0.00    +0.012 A 
ATOM      4  C   UNL     1      51.242  50.779  20.551  1.00  0.00    -0.000 A 
ATOM      5  C   UNL     1      51.078  49.387  20.317  1.00  0.00    +0.028 A 
ATOM      6  C   UNL     1      50.132  49.241  19.327  1.00  0.00    +0.087 A 
ATOM      7  N   UNL     1      49.708  50.492  18.955  1.00  0.00    -0.347 N 
ATOM      8  C   UNL     1      50.393  51.456  19.669  1.00  0.00    +0.050 A 
ATOM      9  C   UNL     1      50.331  52.862  19.640  1.00  0.00    +0.053 A 
ENDROOT
BRANCH   1  10
ATOM     10  N   UNL     1      50.981  55.005  20.485  1.00  0.00    -0.326 N 
ATOM     11  C   UNL     1      51.096  55.911  21.528  1.00  0.00    +0.224 C 
ATOM     12  O   UNL     1      51.411  55.656  22.687  1.00  0.00    -0.275 OA
ATOM     13  H   UNL     1      50.840  55.404  19.567  1.00  0.00    +0.169 HD
BRANCH  11  14
ATOM     14  C   UNL     1      50.649  57.308  21.123  1.00  0.00    +0.108 C 
BRANCH  14  15
ATOM     15  C   UNL     1      49.130  57.440  21.050  1.00  0.00    +0.085 C 
BRANCH  15  16
ATOM     16  C   UNL     1      48.636  57.281  19.640  1.00  0.00    +0.110 A 
ATOM     17  N   UNL     1      47.877  58.224  18.977  1.00  0.00    -0.331 N 
ATOM     18  C   UNL     1      47.618  57.753  17.709  1.00  0.00    +0.068 A 
ATOM     19  N   UNL     1      48.871  56.237  18.862  1.00  0.00    -0.233 NA
ATOM     20  C   UNL     1      46.903  58.264  16.618  1.00  0.00    +0.028 A 
ATOM     21  C   UNL     1      48.260  56.515  17.666  1.00  0.00    +0.089 A 
ATOM     22  C   UNL     1      46.859  57.478  15.458  1.00  0.00    +0.002 A 
ATOM     23  C   UNL     1      48.209  55.743  16.493  1.00  0.00    +0.030 A 
ATOM     24  C   UNL     1      47.503  56.239  15.391  1.00  0.00    +0.002 A 
ATOM     25  C   UNL     1      47.438  59.492  19.523  1.00  0.00    +0.151 C 
ENDBRANCH  15  16
ENDBRANCH  14  15
ENDBRANCH  11  14
ENDBRANCH   1  10
BRANCH   7  26
ATOM     26  C   UNL     1      48.698  50.735  17.945  1.00  0.00    +0.124 C 
BRANCH  26  27
ATOM     27  C   UNL     1      49.220  50.828  16.508  1.00  0.00    +0.050 C 
BRANCH  27  28
ATOM     28  C   UNL     1      49.358  49.470  15.781  1.00  0.00    +0.115 C 
BRANCH  28  29
ATOM     29  C   UNL     1      50.199  49.501  14.486  1.00  0.00    +0.181 C 
BRANCH  29  30
ATOM     30  O   UNL     1      51.157  48.444  14.451  1.00  0.00    -0.394 OA
ATOM     31  H   UNL     1      50.689  47.649  14.127  1.00  0.00    +0.210 HD
ENDBRANCH  29  30
ENDBRANCH  28  29
BRANCH  28  32
ATOM     32  N   UNL     1      48.034  48.904  15.496  1.00  0.00    -0.331 N 
ATOM     33  C   UNL     1      47.414  48.901  14.279  1.00  0.00    +0.200 A 
ATOM     34  C   UNL     1      47.180  48.312  16.389  1.00  0.00    +0.121 A 
ATOM     35  N   UNL     1      46.220  48.356  14.350  1.00  0.00    -0.232 NA
ATOM     36  C   UNL     1      46.038  47.986  15.673  1.00  0.00    +0.145 A 
BRANCH  36  37
ATOM     37  C   UNL     1      44.807  47.357  16.170  1.00  0.00    +0.268 C 
ATOM     38  N   UNL     1      44.913  46.660  17.346  1.00  0.00    -0.364 N 
ATOM     39  O   UNL     1      43.714  47.439  15.616  1.00  0.00    -0.268 OA
ATOM     40  H   UNL     1      44.043  46.353  17.754  1.00  0.00    +0.160 HD
ATOM     41  H   UNL     1      45.728  46.736  17.936  1.00  0.00    +0.160 HD
ENDBRANCH  36  37
ENDBRANCH  28  32
ENDBRANCH  27  28
ENDBRANCH  26  27
ENDBRANCH   7  26
TORSDOF 11
ENDMDL
MODEL 4
REMARK VINA RESULT:    -8.959      3.936     10.208
REMARK INTER + INTRA:         -16.515
REMARK INTER:                 -15.613
REMARK INTRA:                  -0.901
REMARK UNBOUND:                -2.056
REMARK SMILES Cn1c(CCC(=O)Nc2ccc3ccn(CC[C@H](CO)n4cnc(C(N)=O)c4)c3c2)nc2ccccc21
REMARK SMILES IDX 9 1 10 2 11 3 12 4 13 5 14 6 15 7 29 8 30 9 8 10 6 11 7 12
REMARK SMILES IDX 5 14 4 15 3 16 2 17 37 18 31 19 36 20 32 21 35 22 33 23
REMARK SMILES IDX 34 24 1 25 16 26 17 27 18 28 19 29 20 30 21 32 22 33 28 34
REMARK SMILES IDX 23 35 24 36 25 37 26 38 27 39
REMARK H PARENT 8 13 20 31 26 40 26 41
ROOT
ATOM      1  C   UNL     1      49.965  56.305  20.278  1.00  0.00    +0.043 A 
ATOM      2  C   UNL     1      50.628  56.480  21.489  1.00  0.00    +0.027 A 
ATOM      3  C   UNL     1      51.276  55.409  22.125  1.00  0.00    +0.012 A 
ATOM      4  C   UNL     1      51.242  54.127  21.544  1.00  0.00    -0.000 A 
ATOM      5  C   UNL     1      51.774  52.864  21.919  1.00  0.00    +0.028 A 
ATOM      6  C   UNL     1      51.400  51.953  20.955  1.00  0.00    +0.087 A 
ATOM      7  N   UNL     1      50.655  52.614  20.012  1.00  0.00    -0.347 N 
ATOM      8  C   UNL     1      50.566  53.955  20.332  1.00  0.00    +0.050 A 
ATOM      9  C   UNL     1      49.934  55.032  19.682  1.00  0.00    +0.053 A 
ENDROOT
BRANCH   1  10
ATOM     10  N   UNL     1      49.274  57.332  19.597  1.00  0.00    -0.326 N 
ATOM     11  C   UNL     1      48.295  58.177  20.097  1.00  0.00    +0.224 C 
ATOM     12  O   UNL     1      47.893  58.225  21.256  1.00  0.00    -0.275 OA
ATOM     13  H   UNL     1      49.574  57.515  18.650  1.00  0.00    +0.169 HD
BRANCH  11  14
ATOM     14  C   UNL     1      47.633  58.995  18.999  1.00  0.00    +0.108 C 
BRANCH  14  15
ATOM     15  C   UNL     1      46.410  59.762  19.494  1.00  0.00    +0.085 C 
BRANCH  15  16
ATOM     16  C   UNL     1      46.330  61.124  18.867  1.00  0.00    +0.110 A 
ATOM     17  N   UNL     1      45.173  61.873  18.791  1.00  0.00    -0.331 N 
ATOM     18  C   UNL     1      45.473  63.065  18.168  1.00  0.00    +0.068 A 
ATOM     19  N   UNL     1      47.346  61.775  18.323  1.00  0.00    -0.233 NA
ATOM     20  C   UNL     1      44.711  64.187  17.816  1.00  0.00    +0.028 A 
ATOM     21  C   UNL     1      46.838  62.976  17.897  1.00  0.00    +0.089 A 
ATOM     22  C   UNL     1      45.379  65.239  17.177  1.00  0.00    +0.002 A 
ATOM     23  C   UNL     1      47.494  64.043  17.259  1.00  0.00    +0.030 A 
ATOM     24  C   UNL     1      46.749  65.174  16.904  1.00  0.00    +0.002 A 
ATOM     25  C   UNL     1      43.874  61.474  19.290  1.00  0.00    +0.151 C 
ENDBRANCH  15  16
ENDBRANCH  14  15
ENDBRANCH  11  14
ENDBRANCH   1  10
BRANCH   7  26
ATOM     26  C   UNL     1      50.072  51.974  18.850  1.00  0.00    +0.124 C 
BRANCH  26  27
ATOM     27  C   UNL     1      49.757  50.484  19.014  1.00  0.00    +0.050 C 
BRANCH  27  28
ATOM     28  C   UNL     1      49.679  49.690  17.690  1.00  0.00    +0.115 C 
BRANCH  28  29
ATOM     29  C   UNL     1      49.787  50.541  16.407  1.00  0.00    +0.181 C 
BRANCH  29  30
ATOM     30  O   UNL     1      50.887  50.135  15.592  1.00  0.00    -0.394 OA
ATOM     31  H   UNL     1      51.370  50.948  15.344  1.00  0.00    +0.210 HD
ENDBRANCH  29  30
ENDBRANCH  28  29
BRANCH  28  32
ATOM     32  N   UNL     1      48.451  48.885  17.646  1.00  0.00    -0.331 N 
ATOM     33  C   UNL     1      48.047  48.106  16.600  1.00  0.00    +0.200 A 
ATOM     34  C   UNL     1      47.490  48.794  18.617  1.00  0.00    +0.121 A 
ATOM     35  N   UNL     1      46.887  47.539  16.844  1.00  0.00    -0.232 NA
ATOM     36  C   UNL     1      46.503  47.965  18.106  1.00  0.00    +0.145 A 
BRANCH  36  37
ATOM     37  C   UNL     1      45.238  47.566  18.738  1.00  0.00    +0.268 C 
ATOM     38  N   UNL     1      44.100  47.765  17.999  1.00  0.00    -0.364 N 
ATOM     39  O   UNL     1      45.149  47.058  19.852  1.00  0.00    -0.268 OA
ATOM     40  H   UNL     1      43.255  47.361  18.375  1.00  0.00    +0.160 HD
ATOM     41  H   UNL     1      44.139  47.983  17.014  1.00  0.00    +0.160 HD
ENDBRANCH  36  37
ENDBRANCH  28  32
ENDBRANCH  27  28
ENDBRANCH  26  27
ENDBRANCH   7  26
TORSDOF 11
ENDMDL
MODEL 5
REMARK VINA RESULT:    -8.838      4.252     10.227
REMARK INTER + INTRA:         -16.319
REMARK INTER:                 -15.254
REMARK INTRA:                  -1.065
REMARK UNBOUND:                -2.056
REMARK SMILES Cn1c(CCC(=O)Nc2ccc3ccn(CC[C@H](CO)n4cnc(C(N)=O)c4)c3c2)nc2ccccc21
REMARK SMILES IDX 9 1 10 2 11 3 12 4 13 5 14 6 15 7 29 8 30 9 8 10 6 11 7 12
REMARK SMILES IDX 5 14 4 15 3 16 2 17 37 18 31 19 36 20 32 21 35 22 33 23
REMARK SMILES IDX 34 24 1 25 16 26 17 27 18 28 19 29 20 30 21 32 22 33 28 34
REMARK SMILES IDX 23 35 24 36 25 37 26 38 27 39
REMARK H PARENT 8 13 20 31 26 40 26 41
ROOT
ATOM      1  C   UNL     1      49.890  57.307  20.629  1.00  0.00    +0.043 A 
ATOM      2  C   UNL     1      50.632  57.512  21.789  1.00  0.00    +0.027 A 
ATOM      3  C   UNL     1      51.266  56.445  22.445  1.00  0.00    +0.012 A 
ATOM      4  C   UNL     1      51.137  55.137  21.939  1.00  0.00    -0.000 A 
ATOM      5  C   UNL     1      51.630  53.870  22.352  1.00  0.00    +0.028 A 
ATOM      6  C   UNL     1      51.156  52.930  21.463  1.00  0.00    +0.087 A 
ATOM      7  N   UNL     1      50.388  53.577  20.529  1.00  0.00    -0.347 N 
ATOM      8  C   UNL     1      50.382  54.936  20.779  1.00  0.00    +0.050 A 
ATOM      9  C   UNL     1      49.763  56.008  20.108  1.00  0.00    +0.053 A 
ENDROOT
BRANCH   1  10
ATOM     10  N   UNL     1      49.209  58.331  19.934  1.00  0.00    -0.326 N 
ATOM     11  C   UNL     1      47.859  58.643  19.984  1.00  0.00    +0.224 C 
ATOM     12  O   UNL     1      47.013  58.117  20.701  1.00  0.00    -0.275 OA
ATOM     13  H   UNL     1      49.786  58.950  19.382  1.00  0.00    +0.169 HD
BRANCH  11  14
ATOM     14  C   UNL     1      47.469  59.660  18.922  1.00  0.00    +0.108 C 
BRANCH  14  15
ATOM     15  C   UNL     1      46.112  60.302  19.194  1.00  0.00    +0.085 C 
BRANCH  15  16
ATOM     16  C   UNL     1      46.046  61.695  18.637  1.00  0.00    +0.110 A 
ATOM     17  N   UNL     1      44.919  62.491  18.677  1.00  0.00    -0.331 N 
ATOM     18  C   UNL     1      45.225  63.699  18.091  1.00  0.00    +0.068 A 
ATOM     19  N   UNL     1      47.049  62.333  18.054  1.00  0.00    -0.233 NA
ATOM     20  C   UNL     1      44.488  64.865  17.845  1.00  0.00    +0.028 A 
ATOM     21  C   UNL     1      46.564  63.572  17.721  1.00  0.00    +0.089 A 
ATOM     22  C   UNL     1      45.155  65.922  17.210  1.00  0.00    +0.002 A 
ATOM     23  C   UNL     1      47.218  64.643  17.089  1.00  0.00    +0.030 A 
ATOM     24  C   UNL     1      46.499  65.817  16.840  1.00  0.00    +0.002 A 
ATOM     25  C   UNL     1      43.641  62.118  19.247  1.00  0.00    +0.151 C 
ENDBRANCH  15  16
ENDBRANCH  14  15
ENDBRANCH  11  14
ENDBRANCH   1  10
BRANCH   7  26
ATOM     26  C   UNL     1      49.706  52.907  19.440  1.00  0.00    +0.124 C 
BRANCH  26  27
ATOM     27  C   UNL     1      50.578  52.589  18.221  1.00  0.00    +0.050 C 
BRANCH  27  28
ATOM     28  C   UNL     1      51.027  51.113  18.116  1.00  0.00    +0.115 C 
BRANCH  28  29
ATOM     29  C   UNL     1      52.404  50.892  17.453  1.00  0.00    +0.181 C 
BRANCH  29  30
ATOM     30  O   UNL     1      53.092  52.123  17.235  1.00  0.00    -0.394 OA
ATOM     31  H   UNL     1      52.461  52.840  17.446  1.00  0.00    +0.210 HD
ENDBRANCH  29  30
ENDBRANCH  28  29
BRANCH  28  32
ATOM     32  N   UNL     1      50.010  50.315  17.419  1.00  0.00    -0.331 N 
ATOM     33  C   UNL     1      49.400  49.197  17.912  1.00  0.00    +0.200 A 
ATOM     34  C   UNL     1      49.517  50.526  16.159  1.00  0.00    +0.121 A 
ATOM     35  N   UNL     1      48.564  48.683  17.038  1.00  0.00    -0.232 NA
ATOM     36  C   UNL     1      48.625  49.493  15.915  1.00  0.00    +0.145 A 
BRANCH  36  37
ATOM     37  C   UNL     1      47.846  49.237  14.696  1.00  0.00    +0.268 C 
ATOM     38  N   UNL     1      48.221  49.937  13.578  1.00  0.00    -0.364 N 
ATOM     39  O   UNL     1      46.918  48.438  14.621  1.00  0.00    -0.268 OA
ATOM     40  H   UNL     1      47.780  49.655  12.715  1.00  0.00    +0.160 HD
ATOM     41  H   UNL     1      49.094  50.442  13.537  1.00  0.00    +0.160 HD
ENDBRANCH  36  37
ENDBRANCH  28  32
ENDBRANCH  27  28
ENDBRANCH  26  27
ENDBRANCH   7  26
TORSDOF 11
ENDMDL
