MODEL 1
REMARK VINA RESULT:    -9.246      0.000      0.000
REMARK INTER + INTRA:         -12.651
REMARK INTER:                 -11.949
REMARK INTRA:                  -0.702
REMARK UNBOUND:                -0.702
REMARK SMILES N=C(N)Nc1nc(-c2ccc(CNc3nc4ccccc4[nH]3)s2)cs1
REMARK SMILES IDX 8 1 9 2 10 3 11 4 23 5 7 6 5 7 6 8 25 9 24 10 4 11 3 12 2 13
REMARK SMILES IDX 1 14 12 19 13 20 14 22 15 23 22 24 16 25 21 26 17 27 20 28
REMARK SMILES IDX 18 29 19 30
REMARK H PARENT 3 15 3 16 1 17 4 18 13 21 22 31
ROOT
ATOM      1  C   UNL     1      49.777  49.476  18.579  1.00  0.00    +0.054 A 
ATOM      2  C   UNL     1      49.737  48.762  19.756  1.00  0.00    +0.022 A 
ATOM      3  C   UNL     1      50.634  49.286  20.733  1.00  0.00    +0.018 A 
ATOM      4  C   UNL     1      51.332  50.383  20.264  1.00  0.00    +0.024 A 
ATOM      5  S   UNL     1      50.889  50.766  18.654  1.00  0.00    -0.137 S 
ENDROOT
BRANCH   1   6
ATOM      6  C   UNL     1      48.890  49.121  17.334  1.00  0.00    +0.093 A 
ATOM      7  C   UNL     1      47.190  48.127  16.301  1.00  0.00    +0.190 A 
ATOM      8  N   UNL     1      47.793  48.287  17.461  1.00  0.00    -0.219 NA
ATOM      9  S   UNL     1      47.940  48.971  14.995  1.00  0.00    -0.105 S 
ATOM     10  C   UNL     1      49.124  49.589  16.061  1.00  0.00    +0.098 A 
BRANCH   7  11
ATOM     11  N   UNL     1      46.092  47.347  16.186  1.00  0.00    -0.303 N 
ATOM     12  N   UNL     1      44.214  46.149  16.534  1.00  0.00    -0.370 N 
ATOM     13  C   UNL     1      45.235  46.834  17.099  1.00  0.00    +0.192 C 
ATOM     14  N   UNL     1      45.260  46.901  18.382  1.00  0.00    -0.269 NA
ATOM     15  H   UNL     1      43.576  45.858  17.272  1.00  0.00    +0.159 HD
ATOM     16  H   UNL     1      43.704  46.684  15.842  1.00  0.00    +0.159 HD
ATOM     17  H   UNL     1      46.086  47.433  18.672  1.00  0.00    +0.191 HD
ATOM     18  H   UNL     1      45.969  46.966  15.257  1.00  0.00    +0.172 HD
ENDBRANCH   7  11
ENDBRANCH   1   6
BRANCH   4  19
ATOM     19  C   UNL     1      52.355  51.211  20.989  1.00  0.00    +0.162 C 
BRANCH  19  20
ATOM     20  N   UNL     1      51.794  51.959  22.110  1.00  0.00    -0.351 N 
ATOM     21  H   UNL     1      52.416  51.896  22.915  1.00  0.00    +0.164 HD
BRANCH  20  22
ATOM     22  C   UNL     1      51.416  53.236  21.898  1.00  0.00    +0.201 A 
ATOM     23  N   UNL     1      51.907  54.304  22.474  1.00  0.00    -0.213 NA
ATOM     24  N   UNL     1      50.385  53.553  21.052  1.00  0.00    -0.324 N 
ATOM     25  C   UNL     1      51.191  55.359  21.958  1.00  0.00    +0.091 A 
ATOM     26  C   UNL     1      50.227  54.914  21.059  1.00  0.00    +0.067 A 
ATOM     27  C   UNL     1      51.304  56.733  22.215  1.00  0.00    +0.030 A 
ATOM     28  C   UNL     1      49.349  55.768  20.389  1.00  0.00    +0.028 A 
ATOM     29  C   UNL     1      50.439  57.613  21.555  1.00  0.00    +0.002 A 
ATOM     30  C   UNL     1      49.478  57.136  20.658  1.00  0.00    +0.002 A 
ATOM     31  H   UNL     1      49.819  52.887  20.552  1.00  0.00    +0.170 HD
ENDBRANCH  20  22
ENDBRANCH  19  20
ENDBRANCH   4  19
TORSDOF 5
ENDMDL
MODEL 2
REMARK VINA RESULT:    -9.220      2.450      9.057
REMARK INTER + INTRA:         -12.616
REMARK INTER:                 -11.849
REMARK INTRA:                  -0.768
REMARK UNBOUND:                -0.702
REMARK SMILES N=C(N)Nc1nc(-c2ccc(CNc3nc4ccccc4[nH]3)s2)cs1
REMARK SMILES IDX 8 1 9 2 10 3 11 4 23 5 7 6 5 7 6 8 25 9 24 10 4 11 3 12 2 13
REMARK SMILES IDX 1 14 12 19 13 20 14 22 15 23 22 24 16 25 21 26 17 27 20 28
REMARK SMILES IDX 18 29 19 30
REMARK H PARENT 3 15 3 16 1 17 4 18 13 21 22 31
ROOT
ATOM      1  C   UNL     1      50.587  53.246  20.597  1.00  0.00    +0.054 A 
ATOM      2  C   UNL     1      50.907  52.465  21.685  1.00  0.00    +0.022 A 
ATOM      3  C   UNL     1      51.170  51.113  21.317  1.00  0.00    +0.018 A 
ATOM      4  C   UNL     1      51.037  50.907  19.957  1.00  0.00    +0.024 A 
ATOM      5  S   UNL     1      50.603  52.353  19.145  1.00  0.00    -0.137 S 
ENDROOT
BRANCH   1   6
ATOM      6  C   UNL     1      50.254  54.775  20.712  1.00  0.00    +0.093 A 
ATOM      7  C   UNL     1      50.679  56.883  21.277  1.00  0.00    +0.190 A 
ATOM      8  N   UNL     1      51.154  55.655  21.288  1.00  0.00    -0.219 NA
ATOM      9  S   UNL     1      49.107  57.026  20.579  1.00  0.00    -0.105 S 
ATOM     10  C   UNL     1      49.083  55.345  20.267  1.00  0.00    +0.098 A 
BRANCH   7  11
ATOM     11  N   UNL     1      51.390  57.911  21.794  1.00  0.00    -0.303 N 
ATOM     12  N   UNL     1      52.996  59.368  22.411  1.00  0.00    -0.370 N 
ATOM     13  C   UNL     1      52.717  58.168  21.851  1.00  0.00    +0.192 C 
ATOM     14  N   UNL     1      53.713  57.454  21.464  1.00  0.00    -0.269 NA
ATOM     15  H   UNL     1      54.000  59.524  22.352  1.00  0.00    +0.159 HD
ATOM     16  H   UNL     1      52.511  60.141  21.972  1.00  0.00    +0.159 HD
ATOM     17  H   UNL     1      53.360  56.575  21.074  1.00  0.00    +0.191 HD
ATOM     18  H   UNL     1      50.832  58.534  22.364  1.00  0.00    +0.172 HD
ENDBRANCH   7  11
ENDBRANCH   1   6
BRANCH   4  19
ATOM     19  C   UNL     1      51.236  49.633  19.186  1.00  0.00    +0.162 C 
BRANCH  19  20
ATOM     20  N   UNL     1      50.186  48.649  19.428  1.00  0.00    -0.351 N 
ATOM     21  H   UNL     1      49.893  48.687  20.403  1.00  0.00    +0.164 HD
BRANCH  20  22
ATOM     22  C   UNL     1      49.115  48.646  18.607  1.00  0.00    +0.201 A 
ATOM     23  N   UNL     1      47.862  48.796  18.956  1.00  0.00    -0.213 NA
ATOM     24  N   UNL     1      49.237  48.417  17.262  1.00  0.00    -0.324 N 
ATOM     25  C   UNL     1      47.145  48.694  17.786  1.00  0.00    +0.091 A 
ATOM     26  C   UNL     1      47.986  48.457  16.705  1.00  0.00    +0.067 A 
ATOM     27  C   UNL     1      45.762  48.789  17.570  1.00  0.00    +0.030 A 
ATOM     28  C   UNL     1      47.529  48.301  15.395  1.00  0.00    +0.028 A 
ATOM     29  C   UNL     1      45.275  48.641  16.265  1.00  0.00    +0.002 A 
ATOM     30  C   UNL     1      46.146  48.401  15.198  1.00  0.00    +0.002 A 
ATOM     31  H   UNL     1      50.100  48.210  16.785  1.00  0.00    +0.170 HD
ENDBRANCH  20  22
ENDBRANCH  19  20
ENDBRANCH   4  19
TORSDOF 5
ENDMDL
MODEL 3
REMARK VINA RESULT:    -9.015      2.833      9.296
REMARK INTER + INTRA:         -12.352
REMARK INTER:                 -11.673
REMARK INTRA:                  -0.679
REMARK UNBOUND:                -0.702
REMARK SMILES N=C(N)Nc1nc(-c2ccc(CNc3nc4ccccc4[nH]3)s2)cs1
REMARK SMILES IDX 8 1 9 2 10 3 11 4 23 5 7 6 5 7 6 8 25 9 24 10 4 11 3 12 2 13
REMARK SMILES IDX 1 14 12 19 13 20 14 22 15 23 22 24 16 25 21 26 17 27 20 28
REMARK SMILES IDX 18 29 19 30
REMARK H PARENT 3 15 3 16 1 17 4 18 13 21 22 31
ROOT
ATOM      1  C   UNL     1      49.635  54.282  19.146  1.00  0.00    +0.054 A 
ATOM      2  C   UNL     1      48.634  53.968  18.255  1.00  0.00    +0.022 A 
ATOM      3  C   UNL     1      48.877  52.729  17.589  1.00  0.00    +0.018 A 
ATOM      4  C   UNL     1      50.061  52.144  17.994  1.00  0.00    +0.024 A 
ATOM      5  S   UNL     1      50.857  53.094  19.177  1.00  0.00    -0.137 S 
ENDROOT
BRANCH   1   6
ATOM      6  C   UNL     1      49.623  55.587  20.018  1.00  0.00    +0.093 A 
ATOM      7  C   UNL     1      50.555  57.177  21.262  1.00  0.00    +0.190 A 
ATOM      8  N   UNL     1      50.790  56.076  20.578  1.00  0.00    -0.219 NA
ATOM      9  S   UNL     1      48.899  57.662  21.270  1.00  0.00    -0.105 S 
ATOM     10  C   UNL     1      48.492  56.323  20.289  1.00  0.00    +0.098 A 
BRANCH   7  11
ATOM     11  N   UNL     1      51.554  57.829  21.899  1.00  0.00    -0.303 N 
ATOM     12  N   UNL     1      53.530  58.675  22.578  1.00  0.00    -0.370 N 
ATOM     13  C   UNL     1      52.900  57.795  21.767  1.00  0.00    +0.192 C 
ATOM     14  N   UNL     1      53.635  57.064  21.007  1.00  0.00    -0.269 NA
ATOM     15  H   UNL     1      54.526  58.646  22.371  1.00  0.00    +0.159 HD
ATOM     16  H   UNL     1      53.196  59.626  22.478  1.00  0.00    +0.159 HD
ATOM     17  H   UNL     1      53.034  56.440  20.461  1.00  0.00    +0.191 HD
ATOM     18  H   UNL     1      51.240  58.333  22.719  1.00  0.00    +0.172 HD
ENDBRANCH   7  11
ENDBRANCH   1   6
BRANCH   4  19
ATOM     19  C   UNL     1      50.658  50.843  17.536  1.00  0.00    +0.162 C 
BRANCH  19  20
ATOM     20  N   UNL     1      50.124  49.687  18.249  1.00  0.00    -0.351 N 
ATOM     21  H   UNL     1      50.215  49.827  19.254  1.00  0.00    +0.164 HD
BRANCH  20  22
ATOM     22  C   UNL     1      48.882  49.263  17.936  1.00  0.00    +0.201 A 
ATOM     23  N   UNL     1      48.319  49.295  16.754  1.00  0.00    -0.213 NA
ATOM     24  N   UNL     1      48.022  48.783  18.888  1.00  0.00    -0.324 N 
ATOM     25  C   UNL     1      47.055  48.785  16.939  1.00  0.00    +0.091 A 
ATOM     26  C   UNL     1      46.843  48.452  18.273  1.00  0.00    +0.067 A 
ATOM     27  C   UNL     1      46.026  48.577  16.010  1.00  0.00    +0.030 A 
ATOM     28  C   UNL     1      45.644  47.920  18.751  1.00  0.00    +0.028 A 
ATOM     29  C   UNL     1      44.813  48.041  16.460  1.00  0.00    +0.002 A 
ATOM     30  C   UNL     1      44.628  47.719  17.808  1.00  0.00    +0.002 A 
ATOM     31  H   UNL     1      48.219  48.730  19.874  1.00  0.00    +0.170 HD
ENDBRANCH  20  22
ENDBRANCH  19  20
ENDBRANCH   4  19
TORSDOF 5
ENDMDL
MODEL 4
REMARK VINA RESULT:    -8.975      1.610      1.986
REMARK INTER + INTRA:         -12.300
REMARK INTER:                 -11.915
REMARK INTRA:                  -0.385
REMARK UNBOUND:                -0.702
REMARK SMILES N=C(N)Nc1nc(-c2ccc(CNc3nc4ccccc4[nH]3)s2)cs1
REMARK SMILES IDX 8 1 9 2 10 3 11 4 23 5 7 6 5 7 6 8 25 9 24 10 4 11 3 12 2 13
REMARK SMILES IDX 1 14 12 19 13 20 14 22 15 23 22 24 16 25 21 26 17 27 20 28
REMARK SMILES IDX 18 29 19 30
REMARK H PARENT 3 15 3 16 1 17 4 18 13 21 22 31
ROOT
ATOM      1  C   UNL     1      50.066  50.340  18.564  1.00  0.00    +0.054 A 
ATOM      2  C   UNL     1      50.971  49.955  19.528  1.00  0.00    +0.022 A 
ATOM      3  C   UNL     1      51.881  51.003  19.858  1.00  0.00    +0.018 A 
ATOM      4  C   UNL     1      51.641  52.152  19.128  1.00  0.00    +0.024 A 
ATOM      5  S   UNL     1      50.315  51.949  18.061  1.00  0.00    -0.137 S 
ENDROOT
BRANCH   1   6
ATOM      6  C   UNL     1      48.948  49.385  18.014  1.00  0.00    +0.093 A 
ATOM      7  C   UNL     1      47.141  48.102  18.193  1.00  0.00    +0.190 A 
ATOM      8  N   UNL     1      47.979  48.870  18.857  1.00  0.00    -0.219 NA
ATOM      9  S   UNL     1      47.501  47.956  16.511  1.00  0.00    -0.105 S 
ATOM     10  C   UNL     1      48.846  48.994  16.699  1.00  0.00    +0.098 A 
BRANCH   7  11
ATOM     11  N   UNL     1      46.110  47.489  18.818  1.00  0.00    -0.303 N 
ATOM     12  N   UNL     1      44.103  46.675  19.442  1.00  0.00    -0.370 N 
ATOM     13  C   UNL     1      44.774  47.501  18.607  1.00  0.00    +0.192 C 
ATOM     14  N   UNL     1      44.080  48.170  17.757  1.00  0.00    -0.269 NA
ATOM     15  H   UNL     1      43.120  46.680  19.177  1.00  0.00    +0.159 HD
ATOM     16  H   UNL     1      44.447  45.723  19.429  1.00  0.00    +0.159 HD
ATOM     17  H   UNL     1      44.709  48.758  17.202  1.00  0.00    +0.191 HD
ATOM     18  H   UNL     1      46.379  47.047  19.688  1.00  0.00    +0.172 HD
ENDBRANCH   7  11
ENDBRANCH   1   6
BRANCH   4  19
ATOM     19  C   UNL     1      52.372  53.463  19.193  1.00  0.00    +0.162 C 
BRANCH  19  20
ATOM     20  N   UNL     1      52.251  54.121  20.490  1.00  0.00    -0.351 N 
ATOM     21  H   UNL     1      53.156  54.492  20.775  1.00  0.00    +0.164 HD
BRANCH  20  22
ATOM     22  C   UNL     1      51.283  55.048  20.646  1.00  0.00    +0.201 A 
ATOM     23  N   UNL     1      51.309  56.077  21.455  1.00  0.00    -0.213 NA
ATOM     24  N   UNL     1      50.091  54.966  19.978  1.00  0.00    -0.324 N 
ATOM     25  C   UNL     1      50.099  56.707  21.281  1.00  0.00    +0.091 A 
ATOM     26  C   UNL     1      49.313  56.030  20.354  1.00  0.00    +0.067 A 
ATOM     27  C   UNL     1      49.596  57.868  21.886  1.00  0.00    +0.030 A 
ATOM     28  C   UNL     1      48.030  56.440  19.988  1.00  0.00    +0.028 A 
ATOM     29  C   UNL     1      48.313  58.306  21.535  1.00  0.00    +0.002 A 
ATOM     30  C   UNL     1      47.546  57.602  20.602  1.00  0.00    +0.002 A 
ATOM     31  H   UNL     1      49.825  54.221  19.354  1.00  0.00    +0.170 HD
ENDBRANCH  20  22
ENDBRANCH  19  20
ENDBRANCH   4  19
TORSDOF 5
ENDMDL
MODEL 5
REMARK VINA RESULT:    -8.466      1.652      2.091
REMARK INTER + INTRA:         -11.642
REMARK INTER:                 -10.968
REMARK INTRA:                  -0.674
REMARK UNBOUND:                -0.702
REMARK SMILES N=C(N)Nc1nc(-c2ccc(CNc3nc4ccccc4[nH]3)s2)cs1
REMARK SMILES IDX 8 1 9 2 10 3 11 4 23 5 7 6 5 7 6 8 25 9 24 10 4 11 3 12 2 13
REMARK SMILES IDX 1 14 12 19 13 20 14 22 15 23 22 24 16 25 21 26 17 27 20 28
REMARK SMILES IDX 18 29 19 30
REMARK H PARENT 3 15 3 16 1 17 4 18 13 21 22 31
ROOT
ATOM      1  C   UNL     1      49.063  49.328  18.769  1.00  0.00    +0.054 A 
ATOM      2  C   UNL     1      49.804  48.784  19.794  1.00  0.00    +0.022 A 
ATOM      3  C   UNL     1      50.949  49.575  20.107  1.00  0.00    +0.018 A 
ATOM      4  C   UNL     1      51.044  50.695  19.304  1.00  0.00    +0.024 A 
ATOM      5  S   UNL     1      49.745  50.778  18.189  1.00  0.00    -0.137 S 
ENDROOT
BRANCH   1   6
ATOM      6  C   UNL     1      47.748  48.667  18.223  1.00  0.00    +0.093 A 
ATOM      7  C   UNL     1      46.379  47.949  16.625  1.00  0.00    +0.190 A 
ATOM      8  N   UNL     1      47.536  48.532  16.862  1.00  0.00    -0.219 NA
ATOM      9  S   UNL     1      45.485  47.552  18.047  1.00  0.00    -0.105 S 
ATOM     10  C   UNL     1      46.735  48.189  19.023  1.00  0.00    +0.098 A 
BRANCH   7  11
ATOM     11  N   UNL     1      45.961  47.717  15.360  1.00  0.00    -0.303 N 
ATOM     12  N   UNL     1      45.708  47.627  13.122  1.00  0.00    -0.370 N 
ATOM     13  C   UNL     1      46.375  48.183  14.159  1.00  0.00    +0.192 C 
ATOM     14  N   UNL     1      47.279  49.053  13.880  1.00  0.00    -0.269 NA
ATOM     15  H   UNL     1      46.120  47.967  12.256  1.00  0.00    +0.159 HD
ATOM     16  H   UNL     1      45.727  46.615  13.126  1.00  0.00    +0.159 HD
ATOM     17  H   UNL     1      47.691  49.397  14.752  1.00  0.00    +0.191 HD
ATOM     18  H   UNL     1      45.089  47.204  15.317  1.00  0.00    +0.172 HD
ENDBRANCH   7  11
ENDBRANCH   1   6
BRANCH   4  19
ATOM     19  C   UNL     1      52.095  51.769  19.328  1.00  0.00    +0.162 C 
BRANCH  19  20
ATOM     20  N   UNL     1      52.227  52.409  20.633  1.00  0.00    -0.351 N 
ATOM     21  H   UNL     1      53.212  52.482  20.885  1.00  0.00    +0.164 HD
BRANCH  20  22
ATOM     22  C   UNL     1      51.595  53.584  20.834  1.00  0.00    +0.201 A 
ATOM     23  N   UNL     1      51.962  54.541  21.648  1.00  0.00    -0.213 NA
ATOM     24  N   UNL     1      50.411  53.882  20.211  1.00  0.00    -0.324 N 
ATOM     25  C   UNL     1      50.997  55.513  21.525  1.00  0.00    +0.091 A 
ATOM     26  C   UNL     1      50.010  55.125  20.625  1.00  0.00    +0.067 A 
ATOM     27  C   UNL     1      50.894  56.761  22.157  1.00  0.00    +0.030 A 
ATOM     28  C   UNL     1      48.902  55.914  20.311  1.00  0.00    +0.028 A 
ATOM     29  C   UNL     1      49.795  57.576  21.859  1.00  0.00    +0.002 A 
ATOM     30  C   UNL     1      48.816  57.156  20.951  1.00  0.00    +0.002 A 
ATOM     31  H   UNL     1      49.910  53.265  19.593  1.00  0.00    +0.170 HD
ENDBRANCH  20  22
ENDBRANCH  19  20
ENDBRANCH   4  19
TORSDOF 5
ENDMDL
