MODEL 1
REMARK VINA RESULT:    -9.133      0.000      0.000
REMARK INTER + INTRA:         -13.917
REMARK INTER:                 -13.137
REMARK INTRA:                  -0.780
REMARK UNBOUND:                -0.780
REMARK SMILES C[C@H](O)[C@@H](CCOc1ccc2ccccc2c1)n1cnc(C(N)=O)c1
REMARK SMILES IDX 4 1 2 2 1 3 3 4 5 6 6 7 7 8 8 9 9 10 17 11 10 12 16 13 11 14
REMARK SMILES IDX 15 15 12 16 14 17 13 18 18 19 19 20 25 21 20 22 21 23 22 24
REMARK SMILES IDX 23 25 24 26
REMARK H PARENT 3 5 23 27 23 28
ROOT
ATOM      1  C   UNL     1      49.441  49.708  18.747  1.00  0.00    +0.120 C 
ENDROOT
BRANCH   1   2
ATOM      2  C   UNL     1      50.495  48.933  19.583  1.00  0.00    +0.134 C 
ATOM      3  C   UNL     1      50.331  48.990  21.097  1.00  0.00    +0.040 C 
BRANCH   2   4
ATOM      4  O   UNL     1      51.818  49.363  19.246  1.00  0.00    -0.391 OA
ATOM      5  H   UNL     1      52.405  49.177  20.001  1.00  0.00    +0.211 HD
ENDBRANCH   2   4
ENDBRANCH   1   2
BRANCH   1   6
ATOM      6  C   UNL     1      50.093  50.644  17.706  1.00  0.00    +0.070 C 
BRANCH   6   7
ATOM      7  C   UNL     1      50.132  52.110  18.150  1.00  0.00    +0.232 C 
BRANCH   7   8
ATOM      8  O   UNL     1      50.483  52.231  19.527  1.00  0.00    -0.493 OA
BRANCH   8   9
ATOM      9  C   UNL     1      50.422  53.458  20.126  1.00  0.00    +0.119 A 
ATOM     10  C   UNL     1      51.346  53.992  21.021  1.00  0.00    +0.047 A 
ATOM     11  C   UNL     1      49.299  54.215  19.774  1.00  0.00    +0.055 A 
ATOM     12  C   UNL     1      51.147  55.268  21.561  1.00  0.00    +0.012 A 
ATOM     13  C   UNL     1      49.083  55.497  20.307  1.00  0.00    -0.015 A 
ATOM     14  C   UNL     1      50.021  56.031  21.216  1.00  0.00    -0.018 A 
ATOM     15  C   UNL     1      47.956  56.259  19.958  1.00  0.00    +0.009 A 
ATOM     16  C   UNL     1      49.810  57.312  21.751  1.00  0.00    +0.009 A 
ATOM     17  C   UNL     1      47.758  57.530  20.499  1.00  0.00    +0.001 A 
ATOM     18  C   UNL     1      48.684  58.056  21.394  1.00  0.00    +0.001 A 
ENDBRANCH   8   9
ENDBRANCH   7   8
ENDBRANCH   6   7
ENDBRANCH   1   6
BRANCH   1  19
ATOM     19  N   UNL     1      48.429  48.829  18.166  1.00  0.00    -0.331 N 
ATOM     20  C   UNL     1      48.627  47.812  17.277  1.00  0.00    +0.200 A 
ATOM     21  C   UNL     1      47.082  48.894  18.418  1.00  0.00    +0.121 A 
ATOM     22  N   UNL     1      47.499  47.221  16.966  1.00  0.00    -0.232 NA
ATOM     23  C   UNL     1      46.505  47.885  17.666  1.00  0.00    +0.145 A 
BRANCH  23  24
ATOM     24  C   UNL     1      45.088  47.516  17.579  1.00  0.00    +0.268 C 
ATOM     25  N   UNL     1      44.622  46.678  18.558  1.00  0.00    -0.364 N 
ATOM     26  O   UNL     1      44.319  47.919  16.712  1.00  0.00    -0.268 OA
ATOM     27  H   UNL     1      43.623  46.530  18.571  1.00  0.00    +0.160 HD
ATOM     28  H   UNL     1      45.146  46.503  19.401  1.00  0.00    +0.160 HD
ENDBRANCH  23  24
ENDBRANCH   1  19
TORSDOF 8
ENDMDL
MODEL 2
REMARK VINA RESULT:    -8.949      1.565      2.093
REMARK INTER + INTRA:         -13.653
REMARK INTER:                 -13.235
REMARK INTRA:                  -0.417
REMARK UNBOUND:                -0.780
REMARK SMILES C[C@H](O)[C@@H](CCOc1ccc2ccccc2c1)n1cnc(C(N)=O)c1
REMARK SMILES IDX 4 1 2 2 1 3 3 4 5 6 6 7 7 8 8 9 9 10 17 11 10 12 16 13 11 14
REMARK SMILES IDX 15 15 12 16 14 17 13 18 18 19 19 20 25 21 20 22 21 23 22 24
REMARK SMILES IDX 23 25 24 26
REMARK H PARENT 3 5 23 27 23 28
ROOT
ATOM      1  C   UNL     1      48.732  50.821  16.827  1.00  0.00    +0.120 C 
ENDROOT
BRANCH   1   2
ATOM      2  C   UNL     1      49.643  50.235  15.715  1.00  0.00    +0.134 C 
ATOM      3  C   UNL     1      49.355  48.800  15.289  1.00  0.00    +0.040 C 
BRANCH   2   4
ATOM      4  O   UNL     1      51.021  50.337  16.089  1.00  0.00    -0.391 OA
ATOM      5  H   UNL     1      51.315  49.470  16.423  1.00  0.00    +0.211 HD
ENDBRANCH   2   4
ENDBRANCH   1   2
BRANCH   1   6
ATOM      6  C   UNL     1      47.984  52.090  16.363  1.00  0.00    +0.070 C 
BRANCH   6   7
ATOM      7  C   UNL     1      48.332  53.333  17.189  1.00  0.00    +0.232 C 
BRANCH   7   8
ATOM      8  O   UNL     1      49.109  53.000  18.337  1.00  0.00    -0.493 OA
BRANCH   8   9
ATOM      9  C   UNL     1      49.436  53.981  19.230  1.00  0.00    +0.119 A 
ATOM     10  C   UNL     1      50.568  54.022  20.040  1.00  0.00    +0.047 A 
ATOM     11  C   UNL     1      48.509  55.026  19.301  1.00  0.00    +0.055 A 
ATOM     12  C   UNL     1      50.768  55.096  20.916  1.00  0.00    +0.012 A 
ATOM     13  C   UNL     1      48.693  56.111  20.175  1.00  0.00    -0.015 A 
ATOM     14  C   UNL     1      49.841  56.145  20.996  1.00  0.00    -0.018 A 
ATOM     15  C   UNL     1      47.764  57.161  20.250  1.00  0.00    +0.009 A 
ATOM     16  C   UNL     1      50.029  57.228  21.870  1.00  0.00    +0.009 A 
ATOM     17  C   UNL     1      47.964  58.230  21.125  1.00  0.00    +0.001 A 
ATOM     18  C   UNL     1      49.095  58.264  21.935  1.00  0.00    +0.001 A 
ENDBRANCH   8   9
ENDBRANCH   7   8
ENDBRANCH   6   7
ENDBRANCH   1   6
BRANCH   1  19
ATOM     19  N   UNL     1      47.843  49.818  17.410  1.00  0.00    -0.331 N 
ATOM     20  C   UNL     1      48.047  49.089  18.544  1.00  0.00    +0.200 A 
ATOM     21  C   UNL     1      46.634  49.432  16.888  1.00  0.00    +0.121 A 
ATOM     22  N   UNL     1      47.041  48.282  18.784  1.00  0.00    -0.232 NA
ATOM     23  C   UNL     1      46.136  48.471  17.752  1.00  0.00    +0.145 A 
BRANCH  23  24
ATOM     24  C   UNL     1      44.868  47.740  17.661  1.00  0.00    +0.268 C 
ATOM     25  N   UNL     1      44.527  46.987  18.754  1.00  0.00    -0.364 N 
ATOM     26  O   UNL     1      44.114  47.778  16.694  1.00  0.00    -0.268 OA
ATOM     27  H   UNL     1      43.598  46.590  18.741  1.00  0.00    +0.160 HD
ATOM     28  H   UNL     1      44.991  47.098  19.642  1.00  0.00    +0.160 HD
ENDBRANCH  23  24
ENDBRANCH   1  19
TORSDOF 8
ENDMDL
MODEL 3
REMARK VINA RESULT:    -8.940      4.005      8.534
REMARK INTER + INTRA:         -13.639
REMARK INTER:                 -12.816
REMARK INTRA:                  -0.823
REMARK UNBOUND:                -0.780
REMARK SMILES C[C@H](O)[C@@H](CCOc1ccc2ccccc2c1)n1cnc(C(N)=O)c1
REMARK SMILES IDX 4 1 2 2 1 3 3 4 5 6 6 7 7 8 8 9 9 10 17 11 10 12 16 13 11 14
REMARK SMILES IDX 15 15 12 16 14 17 13 18 18 19 19 20 25 21 20 22 21 23 22 24
REMARK SMILES IDX 23 25 24 26
REMARK H PARENT 3 5 23 27 23 28
ROOT
ATOM      1  C   UNL     1      50.722  54.367  19.693  1.00  0.00    +0.120 C 
ENDROOT
BRANCH   1   2
ATOM      2  C   UNL     1      49.554  55.111  18.992  1.00  0.00    +0.134 C 
ATOM      3  C   UNL     1      48.458  55.656  19.899  1.00  0.00    +0.040 C 
BRANCH   2   4
ATOM      4  O   UNL     1      48.955  54.278  17.994  1.00  0.00    -0.391 OA
ATOM      5  H   UNL     1      49.309  53.376  18.092  1.00  0.00    +0.211 HD
ENDBRANCH   2   4
ENDBRANCH   1   2
BRANCH   1   6
ATOM      6  C   UNL     1      51.670  53.683  18.683  1.00  0.00    +0.070 C 
BRANCH   6   7
ATOM      7  C   UNL     1      52.307  52.399  19.225  1.00  0.00    +0.232 C 
BRANCH   7   8
ATOM      8  O   UNL     1      52.038  51.283  18.380  1.00  0.00    -0.493 OA
BRANCH   8   9
ATOM      9  C   UNL     1      50.911  50.540  18.592  1.00  0.00    +0.119 A 
ATOM     10  C   UNL     1      50.747  49.532  19.539  1.00  0.00    +0.047 A 
ATOM     11  C   UNL     1      49.843  50.862  17.747  1.00  0.00    +0.055 A 
ATOM     12  C   UNL     1      49.528  48.850  19.636  1.00  0.00    +0.012 A 
ATOM     13  C   UNL     1      48.613  50.187  17.831  1.00  0.00    -0.015 A 
ATOM     14  C   UNL     1      48.454  49.165  18.790  1.00  0.00    -0.018 A 
ATOM     15  C   UNL     1      47.540  50.506  16.984  1.00  0.00    +0.009 A 
ATOM     16  C   UNL     1      47.227  48.488  18.878  1.00  0.00    +0.009 A 
ATOM     17  C   UNL     1      46.326  49.824  17.082  1.00  0.00    +0.001 A 
ATOM     18  C   UNL     1      46.170  48.816  18.027  1.00  0.00    +0.001 A 
ENDBRANCH   8   9
ENDBRANCH   7   8
ENDBRANCH   6   7
ENDBRANCH   1   6
BRANCH   1  19
ATOM     19  N   UNL     1      51.429  55.211  20.654  1.00  0.00    -0.331 N 
ATOM     20  C   UNL     1      51.552  55.011  21.998  1.00  0.00    +0.200 A 
ATOM     21  C   UNL     1      52.089  56.374  20.351  1.00  0.00    +0.121 A 
ATOM     22  N   UNL     1      52.260  55.960  22.561  1.00  0.00    -0.232 NA
ATOM     23  C   UNL     1      52.608  56.839  21.548  1.00  0.00    +0.145 A 
BRANCH  23  24
ATOM     24  C   UNL     1      53.408  58.046  21.782  1.00  0.00    +0.268 C 
ATOM     25  N   UNL     1      52.732  59.131  22.273  1.00  0.00    -0.364 N 
ATOM     26  O   UNL     1      54.616  58.126  21.580  1.00  0.00    -0.268 OA
ATOM     27  H   UNL     1      53.305  59.915  22.554  1.00  0.00    +0.160 HD
ATOM     28  H   UNL     1      51.805  59.049  22.660  1.00  0.00    +0.160 HD
ENDBRANCH  23  24
ENDBRANCH   1  19
TORSDOF 8
ENDMDL
MODEL 4
REMARK VINA RESULT:    -8.880      2.150      2.776
REMARK INTER + INTRA:         -13.554
REMARK INTER:                 -12.454
REMARK INTRA:                  -1.100
REMARK UNBOUND:                -0.780
REMARK SMILES C[C@H](O)[C@@H](CCOc1ccc2ccccc2c1)n1cnc(C(N)=O)c1
REMARK SMILES IDX 4 1 2 2 1 3 3 4 5 6 6 7 7 8 8 9 9 10 17 11 10 12 16 13 11 14
REMARK SMILES IDX 15 15 12 16 14 17 13 18 18 19 19 20 25 21 20 22 21 23 22 24
REMARK SMILES IDX 23 25 24 26
REMARK H PARENT 3 5 23 27 23 28
ROOT
ATOM      1  C   UNL     1      51.203  51.546  19.771  1.00  0.00    +0.120 C 
ENDROOT
BRANCH   1   2
ATOM      2  C   UNL     1      51.160  51.365  21.313  1.00  0.00    +0.134 C 
ATOM      3  C   UNL     1      50.807  52.603  22.129  1.00  0.00    +0.040 C 
BRANCH   2   4
ATOM      4  O   UNL     1      52.402  50.836  21.791  1.00  0.00    -0.391 OA
ATOM      5  H   UNL     1      52.382  49.867  21.693  1.00  0.00    +0.211 HD
ENDBRANCH   2   4
ENDBRANCH   1   2
BRANCH   1   6
ATOM      6  C   UNL     1      52.646  51.680  19.238  1.00  0.00    +0.070 C 
BRANCH   6   7
ATOM      7  C   UNL     1      52.964  53.079  18.699  1.00  0.00    +0.232 C 
BRANCH   7   8
ATOM      8  O   UNL     1      51.776  53.815  18.416  1.00  0.00    -0.493 OA
BRANCH   8   9
ATOM      9  C   UNL     1      51.390  54.813  19.267  1.00  0.00    +0.119 A 
ATOM     10  C   UNL     1      52.188  55.452  20.212  1.00  0.00    +0.047 A 
ATOM     11  C   UNL     1      50.049  55.192  19.137  1.00  0.00    +0.055 A 
ATOM     12  C   UNL     1      51.649  56.458  21.023  1.00  0.00    +0.012 A 
ATOM     13  C   UNL     1      49.492  56.199  19.943  1.00  0.00    -0.015 A 
ATOM     14  C   UNL     1      50.305  56.842  20.902  1.00  0.00    -0.018 A 
ATOM     15  C   UNL     1      48.147  56.582  19.818  1.00  0.00    +0.009 A 
ATOM     16  C   UNL     1      49.752  57.850  21.709  1.00  0.00    +0.009 A 
ATOM     17  C   UNL     1      47.611  57.584  20.628  1.00  0.00    +0.001 A 
ATOM     18  C   UNL     1      48.413  58.217  21.572  1.00  0.00    +0.001 A 
ENDBRANCH   8   9
ENDBRANCH   7   8
ENDBRANCH   6   7
ENDBRANCH   1   6
BRANCH   1  19
ATOM     19  N   UNL     1      50.429  50.527  19.065  1.00  0.00    -0.331 N 
ATOM     20  C   UNL     1      49.948  49.354  19.570  1.00  0.00    +0.200 A 
ATOM     21  C   UNL     1      50.063  50.584  17.745  1.00  0.00    +0.121 A 
ATOM     22  N   UNL     1      49.289  48.675  18.663  1.00  0.00    -0.232 NA
ATOM     23  C   UNL     1      49.349  49.423  17.498  1.00  0.00    +0.145 A 
BRANCH  23  24
ATOM     24  C   UNL     1      48.724  48.993  16.243  1.00  0.00    +0.268 C 
ATOM     25  N   UNL     1      49.529  48.304  15.374  1.00  0.00    -0.364 N 
ATOM     26  O   UNL     1      47.551  49.197  15.947  1.00  0.00    -0.268 OA
ATOM     27  H   UNL     1      49.065  47.899  14.573  1.00  0.00    +0.160 HD
ATOM     28  H   UNL     1      50.417  47.922  15.661  1.00  0.00    +0.160 HD
ENDBRANCH  23  24
ENDBRANCH   1  19
TORSDOF 8
ENDMDL
MODEL 5
REMARK VINA RESULT:    -8.806      2.550      4.321
REMARK INTER + INTRA:         -13.447
REMARK INTER:                 -13.017
REMARK INTRA:                  -0.430
REMARK UNBOUND:                -0.780
REMARK SMILES C[C@H](O)[C@@H](CCOc1ccc2ccccc2c1)n1cnc(C(N)=O)c1
REMARK SMILES IDX 4 1 2 2 1 3 3 4 5 6 6 7 7 8 8 9 9 10 17 11 10 12 16 13 11 14
REMARK SMILES IDX 15 15 12 16 14 17 13 18 18 19 19 20 25 21 20 22 21 23 22 24
REMARK SMILES IDX 23 25 24 26
REMARK H PARENT 3 5 23 27 23 28
ROOT
ATOM      1  C   UNL     1      49.399  51.081  16.074  1.00  0.00    +0.120 C 
ENDROOT
BRANCH   1   2
ATOM      2  C   UNL     1      49.147  49.964  15.025  1.00  0.00    +0.134 C 
ATOM      3  C   UNL     1      50.381  49.385  14.345  1.00  0.00    +0.040 C 
BRANCH   2   4
ATOM      4  O   UNL     1      48.234  50.417  14.020  1.00  0.00    -0.391 OA
ATOM      5  H   UNL     1      48.570  50.136  13.149  1.00  0.00    +0.211 HD
ENDBRANCH   2   4
ENDBRANCH   1   2
BRANCH   1   6
ATOM      6  C   UNL     1      48.161  51.983  16.277  1.00  0.00    +0.070 C 
BRANCH   6   7
ATOM      7  C   UNL     1      48.459  53.244  17.096  1.00  0.00    +0.232 C 
BRANCH   7   8
ATOM      8  O   UNL     1      48.790  52.927  18.446  1.00  0.00    -0.493 OA
BRANCH   8   9
ATOM      9  C   UNL     1      49.169  53.930  19.294  1.00  0.00    +0.119 A 
ATOM     10  C   UNL     1      50.327  53.971  20.066  1.00  0.00    +0.047 A 
ATOM     11  C   UNL     1      48.268  54.998  19.359  1.00  0.00    +0.055 A 
ATOM     12  C   UNL     1      50.580  55.069  20.897  1.00  0.00    +0.012 A 
ATOM     13  C   UNL     1      48.505  56.107  20.189  1.00  0.00    -0.015 A 
ATOM     14  C   UNL     1      49.679  56.142  20.971  1.00  0.00    -0.018 A 
ATOM     15  C   UNL     1      47.602  57.181  20.258  1.00  0.00    +0.009 A 
ATOM     16  C   UNL     1      49.920  57.249  21.802  1.00  0.00    +0.009 A 
ATOM     17  C   UNL     1      47.855  58.273  21.089  1.00  0.00    +0.001 A 
ATOM     18  C   UNL     1      49.013  58.307  21.860  1.00  0.00    +0.001 A 
ENDBRANCH   8   9
ENDBRANCH   7   8
ENDBRANCH   6   7
ENDBRANCH   1   6
BRANCH   1  19
ATOM     19  N   UNL     1      49.935  50.562  17.330  1.00  0.00    -0.331 N 
ATOM     20  C   UNL     1      49.293  49.777  18.243  1.00  0.00    +0.200 A 
ATOM     21  C   UNL     1      51.199  50.795  17.809  1.00  0.00    +0.121 A 
ATOM     22  N   UNL     1      50.073  49.485  19.257  1.00  0.00    -0.232 NA
ATOM     23  C   UNL     1      51.280  50.119  19.014  1.00  0.00    +0.145 A 
BRANCH  23  24
ATOM     24  C   UNL     1      52.422  50.035  19.932  1.00  0.00    +0.268 C 
ATOM     25  N   UNL     1      53.081  48.834  19.964  1.00  0.00    -0.364 N 
ATOM     26  O   UNL     1      52.814  50.959  20.637  1.00  0.00    -0.268 OA
ATOM     27  H   UNL     1      53.940  48.819  20.497  1.00  0.00    +0.160 HD
ATOM     28  H   UNL     1      52.941  48.132  19.255  1.00  0.00    +0.160 HD
ENDBRANCH  23  24
ENDBRANCH   1  19
TORSDOF 8
ENDMDL
