MODEL 1
REMARK VINA RESULT:    -9.267      0.000      0.000
REMARK INTER + INTRA:         -13.620
REMARK INTER:                 -12.788
REMARK INTRA:                  -0.832
REMARK UNBOUND:                -0.832
REMARK SMILES NC(=O)c1cn(C(CO)CCc2cccc3ccccc23)cn1
REMARK SMILES IDX 7 1 6 2 4 3 5 4 23 5 22 6 2 7 1 8 3 9 8 12 9 13 10 15 11 16
REMARK SMILES IDX 12 17 13 18 21 19 14 20 20 21 16 22 15 23 19 24 17 25 18 26
REMARK H PARENT 1 10 1 11 9 14
ROOT
ATOM      1  C   UNL     1      51.839  50.504  20.803  1.00  0.00    +0.114 C 
ENDROOT
BRANCH   1   2
ATOM      2  N   UNL     1      51.855  51.969  20.792  1.00  0.00    -0.331 N 
ATOM      3  C   UNL     1      51.707  54.080  21.340  1.00  0.00    +0.145 A 
ATOM      4  C   UNL     1      51.575  52.801  21.841  1.00  0.00    +0.121 A 
ATOM      5  N   UNL     1      52.070  54.029  20.001  1.00  0.00    -0.232 NA
ATOM      6  C   UNL     1      52.156  52.749  19.711  1.00  0.00    +0.200 A 
BRANCH   3   7
ATOM      7  C   UNL     1      51.511  55.330  22.069  1.00  0.00    +0.268 C 
ATOM      8  N   UNL     1      50.627  56.177  21.467  1.00  0.00    -0.364 N 
ATOM      9  O   UNL     1      52.074  55.615  23.121  1.00  0.00    -0.268 OA
ATOM     10  H   UNL     1      50.212  55.901  20.584  1.00  0.00    +0.160 HD
ATOM     11  H   UNL     1      50.441  57.079  21.873  1.00  0.00    +0.160 HD
ENDBRANCH   3   7
ENDBRANCH   1   2
BRANCH   1  12
ATOM     12  C   UNL     1      52.737  49.960  19.679  1.00  0.00    +0.181 C 
BRANCH  12  13
ATOM     13  O   UNL     1      53.844  49.236  20.201  1.00  0.00    -0.394 OA
ATOM     14  H   UNL     1      54.649  49.633  19.821  1.00  0.00    +0.210 HD
ENDBRANCH  12  13
ENDBRANCH   1  12
BRANCH   1  15
ATOM     15  C   UNL     1      50.385  49.988  20.740  1.00  0.00    +0.033 C 
BRANCH  15  16
ATOM     16  C   UNL     1      50.034  49.130  19.517  1.00  0.00    +0.038 C 
BRANCH  16  17
ATOM     17  C   UNL     1      49.073  49.798  18.552  1.00  0.00    -0.040 A 
ATOM     18  C   UNL     1      49.540  50.915  17.837  1.00  0.00    +0.004 A 
ATOM     19  C   UNL     1      47.744  49.330  18.335  1.00  0.00    -0.015 A 
ATOM     20  C   UNL     1      48.731  51.563  16.911  1.00  0.00    +0.001 A 
ATOM     21  C   UNL     1      47.171  48.232  19.018  1.00  0.00    +0.009 A 
ATOM     22  C   UNL     1      46.932  50.001  17.384  1.00  0.00    -0.018 A 
ATOM     23  C   UNL     1      47.437  51.106  16.685  1.00  0.00    +0.009 A 
ATOM     24  C   UNL     1      45.864  47.807  18.767  1.00  0.00    +0.001 A 
ATOM     25  C   UNL     1      45.620  49.561  17.142  1.00  0.00    +0.009 A 
ATOM     26  C   UNL     1      45.089  48.471  17.826  1.00  0.00    +0.001 A 
ENDBRANCH  16  17
ENDBRANCH  15  16
ENDBRANCH   1  15
TORSDOF 7
ENDMDL
MODEL 2
REMARK VINA RESULT:    -8.819      3.138      6.932
REMARK INTER + INTRA:         -13.002
REMARK INTER:                 -12.252
REMARK INTRA:                  -0.750
REMARK UNBOUND:                -0.832
REMARK SMILES NC(=O)c1cn(C(CO)CCc2cccc3ccccc23)cn1
REMARK SMILES IDX 7 1 6 2 4 3 5 4 23 5 22 6 2 7 1 8 3 9 8 12 9 13 10 15 11 16
REMARK SMILES IDX 12 17 13 18 21 19 14 20 20 21 16 22 15 23 19 24 17 25 18 26
REMARK H PARENT 1 10 1 11 9 14
ROOT
ATOM      1  C   UNL     1      51.838  51.455  19.113  1.00  0.00    +0.114 C 
ENDROOT
BRANCH   1   2
ATOM      2  N   UNL     1      50.745  50.717  18.476  1.00  0.00    -0.331 N 
ATOM      3  C   UNL     1      49.056  49.388  18.072  1.00  0.00    +0.145 A 
ATOM      4  C   UNL     1      49.897  49.828  19.075  1.00  0.00    +0.121 A 
ATOM      5  N   UNL     1      49.386  50.007  16.874  1.00  0.00    -0.232 NA
ATOM      6  C   UNL     1      50.395  50.801  17.157  1.00  0.00    +0.200 A 
BRANCH   3   7
ATOM      7  C   UNL     1      47.969  48.422  18.202  1.00  0.00    +0.268 C 
ATOM      8  N   UNL     1      48.068  47.373  17.334  1.00  0.00    -0.364 N 
ATOM      9  O   UNL     1      47.046  48.521  19.003  1.00  0.00    -0.268 OA
ATOM     10  H   UNL     1      48.839  47.356  16.676  1.00  0.00    +0.160 HD
ATOM     11  H   UNL     1      47.353  46.664  17.322  1.00  0.00    +0.160 HD
ENDBRANCH   3   7
ENDBRANCH   1   2
BRANCH   1  12
ATOM     12  C   UNL     1      52.073  50.921  20.536  1.00  0.00    +0.181 C 
BRANCH  12  13
ATOM     13  O   UNL     1      53.191  50.044  20.586  1.00  0.00    -0.394 OA
ATOM     14  H   UNL     1      53.352  49.735  19.676  1.00  0.00    +0.210 HD
ENDBRANCH  12  13
ENDBRANCH   1  12
BRANCH   1  15
ATOM     15  C   UNL     1      51.558  52.973  19.058  1.00  0.00    +0.033 C 
BRANCH  15  16
ATOM     16  C   UNL     1      50.293  53.445  19.789  1.00  0.00    +0.038 C 
BRANCH  16  17
ATOM     17  C   UNL     1      50.518  54.636  20.701  1.00  0.00    -0.040 A 
ATOM     18  C   UNL     1      51.660  54.621  21.521  1.00  0.00    +0.004 A 
ATOM     19  C   UNL     1      49.638  55.756  20.741  1.00  0.00    -0.015 A 
ATOM     20  C   UNL     1      51.953  55.689  22.361  1.00  0.00    +0.001 A 
ATOM     21  C   UNL     1      48.453  55.859  19.976  1.00  0.00    +0.009 A 
ATOM     22  C   UNL     1      49.954  56.840  21.602  1.00  0.00    -0.018 A 
ATOM     23  C   UNL     1      51.106  56.791  22.397  1.00  0.00    +0.009 A 
ATOM     24  C   UNL     1      47.624  56.982  20.046  1.00  0.00    +0.001 A 
ATOM     25  C   UNL     1      49.111  57.962  21.660  1.00  0.00    +0.009 A 
ATOM     26  C   UNL     1      47.955  58.035  20.887  1.00  0.00    +0.001 A 
ENDBRANCH  16  17
ENDBRANCH  15  16
ENDBRANCH   1  15
TORSDOF 7
ENDMDL
MODEL 3
REMARK VINA RESULT:    -8.527      1.421      2.770
REMARK INTER + INTRA:         -12.599
REMARK INTER:                 -11.980
REMARK INTRA:                  -0.619
REMARK UNBOUND:                -0.832
REMARK SMILES NC(=O)c1cn(C(CO)CCc2cccc3ccccc23)cn1
REMARK SMILES IDX 7 1 6 2 4 3 5 4 23 5 22 6 2 7 1 8 3 9 8 12 9 13 10 15 11 16
REMARK SMILES IDX 12 17 13 18 21 19 14 20 20 21 16 22 15 23 19 24 17 25 18 26
REMARK H PARENT 1 10 1 11 9 14
ROOT
ATOM      1  C   UNL     1      51.861  50.651  20.832  1.00  0.00    +0.114 C 
ENDROOT
BRANCH   1   2
ATOM      2  N   UNL     1      51.830  52.112  20.936  1.00  0.00    -0.331 N 
ATOM      3  C   UNL     1      51.996  54.255  20.536  1.00  0.00    +0.145 A 
ATOM      4  C   UNL     1      52.177  53.011  19.966  1.00  0.00    +0.121 A 
ATOM      5  N   UNL     1      51.538  54.115  21.839  1.00  0.00    -0.232 NA
ATOM      6  C   UNL     1      51.443  52.819  22.039  1.00  0.00    +0.200 A 
BRANCH   3   7
ATOM      7  C   UNL     1      52.233  55.550  19.904  1.00  0.00    +0.268 C 
ATOM      8  N   UNL     1      52.875  56.440  20.716  1.00  0.00    -0.364 N 
ATOM      9  O   UNL     1      51.897  55.835  18.760  1.00  0.00    -0.268 OA
ATOM     10  H   UNL     1      53.105  56.159  21.662  1.00  0.00    +0.160 HD
ATOM     11  H   UNL     1      53.062  57.373  20.387  1.00  0.00    +0.160 HD
ENDBRANCH   3   7
ENDBRANCH   1   2
BRANCH   1  12
ATOM     12  C   UNL     1      52.818  50.224  19.705  1.00  0.00    +0.181 C 
BRANCH  12  13
ATOM     13  O   UNL     1      53.728  49.224  20.145  1.00  0.00    -0.394 OA
ATOM     14  H   UNL     1      53.400  48.371  19.807  1.00  0.00    +0.210 HD
ENDBRANCH  12  13
ENDBRANCH   1  12
BRANCH   1  15
ATOM     15  C   UNL     1      50.428  50.099  20.671  1.00  0.00    +0.033 C 
BRANCH  15  16
ATOM     16  C   UNL     1      50.192  49.201  19.448  1.00  0.00    +0.038 C 
BRANCH  16  17
ATOM     17  C   UNL     1      48.907  49.505  18.700  1.00  0.00    -0.040 A 
ATOM     18  C   UNL     1      47.933  48.492  18.644  1.00  0.00    +0.004 A 
ATOM     19  C   UNL     1      48.652  50.762  18.079  1.00  0.00    -0.015 A 
ATOM     20  C   UNL     1      46.717  48.703  18.005  1.00  0.00    +0.001 A 
ATOM     21  C   UNL     1      49.574  51.835  18.058  1.00  0.00    +0.009 A 
ATOM     22  C   UNL     1      47.405  50.962  17.434  1.00  0.00    -0.018 A 
ATOM     23  C   UNL     1      46.455  49.932  17.407  1.00  0.00    +0.009 A 
ATOM     24  C   UNL     1      49.275  53.052  17.441  1.00  0.00    +0.001 A 
ATOM     25  C   UNL     1      47.119  52.192  16.818  1.00  0.00    +0.009 A 
ATOM     26  C   UNL     1      48.046  53.231  16.822  1.00  0.00    +0.001 A 
ENDBRANCH  16  17
ENDBRANCH  15  16
ENDBRANCH   1  15
TORSDOF 7
ENDMDL
MODEL 4
REMARK VINA RESULT:    -8.334      1.368      1.488
REMARK INTER + INTRA:         -12.333
REMARK INTER:                 -11.731
REMARK INTRA:                  -0.602
REMARK UNBOUND:                -0.832
REMARK SMILES NC(=O)c1cn(C(CO)CCc2cccc3ccccc23)cn1
REMARK SMILES IDX 7 1 6 2 4 3 5 4 23 5 22 6 2 7 1 8 3 9 8 12 9 13 10 15 11 16
REMARK SMILES IDX 12 17 13 18 21 19 14 20 20 21 16 22 15 23 19 24 17 25 18 26
REMARK H PARENT 1 10 1 11 9 14
ROOT
ATOM      1  C   UNL     1      51.143  50.650  20.074  1.00  0.00    +0.114 C 
ENDROOT
BRANCH   1   2
ATOM      2  N   UNL     1      51.056  52.084  20.357  1.00  0.00    -0.331 N 
ATOM      3  C   UNL     1      51.320  54.083  21.201  1.00  0.00    +0.145 A 
ATOM      4  C   UNL     1      51.751  52.776  21.310  1.00  0.00    +0.121 A 
ATOM      5  N   UNL     1      50.377  54.188  20.188  1.00  0.00    -0.232 NA
ATOM      6  C   UNL     1      50.251  52.973  19.701  1.00  0.00    +0.200 A 
BRANCH   3   7
ATOM      7  C   UNL     1      51.763  55.220  22.004  1.00  0.00    +0.268 C 
ATOM      8  N   UNL     1      52.011  56.342  21.267  1.00  0.00    -0.364 N 
ATOM      9  O   UNL     1      51.908  55.194  23.221  1.00  0.00    -0.268 OA
ATOM     10  H   UNL     1      51.899  56.297  20.260  1.00  0.00    +0.160 HD
ATOM     11  H   UNL     1      52.348  57.175  21.720  1.00  0.00    +0.160 HD
ENDBRANCH   3   7
ENDBRANCH   1   2
BRANCH   1  12
ATOM     12  C   UNL     1      52.613  50.196  20.106  1.00  0.00    +0.181 C 
BRANCH  12  13
ATOM     13  O   UNL     1      52.730  48.791  19.918  1.00  0.00    -0.394 OA
ATOM     14  H   UNL     1      52.218  48.365  20.629  1.00  0.00    +0.210 HD
ENDBRANCH  12  13
ENDBRANCH   1  12
BRANCH   1  15
ATOM     15  C   UNL     1      50.422  50.324  18.748  1.00  0.00    +0.033 C 
BRANCH  15  16
ATOM     16  C   UNL     1      49.335  49.243  18.829  1.00  0.00    +0.038 C 
BRANCH  16  17
ATOM     17  C   UNL     1      48.509  49.104  17.563  1.00  0.00    -0.040 A 
ATOM     18  C   UNL     1      49.103  49.503  16.353  1.00  0.00    +0.004 A 
ATOM     19  C   UNL     1      47.185  48.578  17.558  1.00  0.00    -0.015 A 
ATOM     20  C   UNL     1      48.424  49.378  15.147  1.00  0.00    +0.001 A 
ATOM     21  C   UNL     1      46.491  48.171  18.721  1.00  0.00    +0.009 A 
ATOM     22  C   UNL     1      46.507  48.453  16.317  1.00  0.00    -0.018 A 
ATOM     23  C   UNL     1      47.136  48.853  15.131  1.00  0.00    +0.009 A 
ATOM     24  C   UNL     1      45.193  47.654  18.663  1.00  0.00    +0.001 A 
ATOM     25  C   UNL     1      45.203  47.931  16.276  1.00  0.00    +0.009 A 
ATOM     26  C   UNL     1      44.551  47.532  17.439  1.00  0.00    +0.001 A 
ENDBRANCH  16  17
ENDBRANCH  15  16
ENDBRANCH   1  15
TORSDOF 7
ENDMDL
MODEL 5
REMARK VINA RESULT:    -8.231      4.111      6.893
REMARK INTER + INTRA:         -12.191
REMARK INTER:                 -11.389
REMARK INTRA:                  -0.802
REMARK UNBOUND:                -0.832
REMARK SMILES NC(=O)c1cn(C(CO)CCc2cccc3ccccc23)cn1
REMARK SMILES IDX 7 1 6 2 4 3 5 4 23 5 22 6 2 7 1 8 3 9 8 12 9 13 10 15 11 16
REMARK SMILES IDX 12 17 13 18 21 19 14 20 20 21 16 22 15 23 19 24 17 25 18 26
REMARK H PARENT 1 10 1 11 9 14
ROOT
ATOM      1  C   UNL     1      51.583  56.752  20.789  1.00  0.00    +0.114 C 
ENDROOT
BRANCH   1   2
ATOM      2  N   UNL     1      51.719  55.333  21.126  1.00  0.00    -0.331 N 
ATOM      3  C   UNL     1      51.975  53.163  21.038  1.00  0.00    +0.145 A 
ATOM      4  C   UNL     1      51.937  54.301  20.256  1.00  0.00    +0.121 A 
ATOM      5  N   UNL     1      51.789  53.500  22.372  1.00  0.00    -0.232 NA
ATOM      6  C   UNL     1      51.647  54.808  22.385  1.00  0.00    +0.200 A 
BRANCH   3   7
ATOM      7  C   UNL     1      52.182  51.793  20.579  1.00  0.00    +0.268 C 
ATOM      8  N   UNL     1      52.128  50.870  21.583  1.00  0.00    -0.364 N 
ATOM      9  O   UNL     1      52.389  51.476  19.412  1.00  0.00    -0.268 OA
ATOM     10  H   UNL     1      51.980  51.192  22.533  1.00  0.00    +0.160 HD
ATOM     11  H   UNL     1      52.285  49.897  21.378  1.00  0.00    +0.160 HD
ENDBRANCH   3   7
ENDBRANCH   1   2
BRANCH   1  12
ATOM     12  C   UNL     1      52.893  57.495  21.106  1.00  0.00    +0.181 C 
BRANCH  12  13
ATOM     13  O   UNL     1      52.712  58.454  22.140  1.00  0.00    -0.394 OA
ATOM     14  H   UNL     1      52.315  59.243  21.731  1.00  0.00    +0.210 HD
ENDBRANCH  12  13
ENDBRANCH   1  12
BRANCH   1  15
ATOM     15  C   UNL     1      50.345  57.350  21.493  1.00  0.00    +0.033 C 
BRANCH  15  16
ATOM     16  C   UNL     1      48.987  56.796  21.039  1.00  0.00    +0.038 C 
BRANCH  16  17
ATOM     17  C   UNL     1      48.322  57.614  19.948  1.00  0.00    -0.040 A 
ATOM     18  C   UNL     1      47.848  58.892  20.293  1.00  0.00    +0.004 A 
ATOM     19  C   UNL     1      48.180  57.148  18.610  1.00  0.00    -0.015 A 
ATOM     20  C   UNL     1      47.255  59.716  19.343  1.00  0.00    +0.001 A 
ATOM     21  C   UNL     1      48.601  55.872  18.167  1.00  0.00    +0.009 A 
ATOM     22  C   UNL     1      47.575  58.002  17.652  1.00  0.00    -0.018 A 
ATOM     23  C   UNL     1      47.123  59.273  18.031  1.00  0.00    +0.009 A 
ATOM     24  C   UNL     1      48.444  55.462  16.840  1.00  0.00    +0.001 A 
ATOM     25  C   UNL     1      47.426  57.576  16.321  1.00  0.00    +0.009 A 
ATOM     26  C   UNL     1      47.859  56.316  15.916  1.00  0.00    +0.001 A 
ENDBRANCH  16  17
ENDBRANCH  15  16
ENDBRANCH   1  15
TORSDOF 7
ENDMDL
