MODEL 1
REMARK VINA RESULT:    -7.984      0.000      0.000
REMARK INTER + INTRA:         -11.919
REMARK INTER:                 -11.018
REMARK INTRA:                  -0.901
REMARK UNBOUND:                -0.901
REMARK SMILES C[C@H](O)[C@@H](CCc1cccc(Cl)c1Cl)n1cnc(C(N)=O)c1
REMARK SMILES IDX 4 1 2 2 1 3 3 4 5 6 6 7 7 8 8 9 13 10 9 11 11 12 10 13 14 14
REMARK SMILES IDX 12 15 15 16 16 17 22 18 17 19 18 20 19 21 20 22 21 23
REMARK H PARENT 3 5 20 24 20 25
ROOT
ATOM      1  C   UNL     1      50.984  54.368  19.160  1.00  0.00    +0.117 C 
ENDROOT
BRANCH   1   2
ATOM      2  C   UNL     1      51.623  52.967  18.991  1.00  0.00    +0.134 C 
ATOM      3  C   UNL     1      53.113  53.037  18.660  1.00  0.00    +0.040 C 
BRANCH   2   4
ATOM      4  O   UNL     1      50.970  52.283  17.918  1.00  0.00    -0.391 OA
ATOM      5  H   UNL     1      51.638  52.073  17.241  1.00  0.00    +0.211 HD
ENDBRANCH   2   4
ENDBRANCH   1   2
BRANCH   1   6
ATOM      6  C   UNL     1      49.445  54.346  19.328  1.00  0.00    +0.033 C 
BRANCH   6   7
ATOM      7  C   UNL     1      48.670  55.245  18.357  1.00  0.00    +0.039 C 
BRANCH   7   8
ATOM      8  C   UNL     1      48.305  56.570  18.994  1.00  0.00    -0.028 A 
ATOM      9  C   UNL     1      48.390  56.676  20.394  1.00  0.00    +0.005 A 
ATOM     10  C   UNL     1      47.912  57.701  18.248  1.00  0.00    +0.062 A 
ATOM     11  C   UNL     1      48.084  57.871  21.043  1.00  0.00    +0.002 A 
ATOM     12  C   UNL     1      47.605  58.903  18.909  1.00  0.00    +0.059 A 
ATOM     13  C   UNL     1      47.690  58.982  20.303  1.00  0.00    +0.022 A 
ATOM     14 Cl   UNL     1      47.810  57.607  16.517  1.00  0.00    -0.082 Cl
ATOM     15 Cl   UNL     1      47.113  60.332  18.067  1.00  0.00    -0.083 Cl
ENDBRANCH   7   8
ENDBRANCH   6   7
ENDBRANCH   1   6
BRANCH   1  16
ATOM     16  N   UNL     1      51.620  55.186  20.187  1.00  0.00    -0.331 N 
ATOM     17  C   UNL     1      51.661  54.944  21.529  1.00  0.00    +0.200 A 
ATOM     18  C   UNL     1      52.289  56.363  19.962  1.00  0.00    +0.121 A 
ATOM     19  N   UNL     1      52.305  55.891  22.168  1.00  0.00    -0.232 NA
ATOM     20  C   UNL     1      52.713  56.801  21.207  1.00  0.00    +0.145 A 
BRANCH  20  21
ATOM     21  C   UNL     1      53.463  58.019  21.532  1.00  0.00    +0.268 C 
ATOM     22  N   UNL     1      52.777  58.986  22.221  1.00  0.00    -0.364 N 
ATOM     23  O   UNL     1      54.632  58.219  21.213  1.00  0.00    -0.268 OA
ATOM     24  H   UNL     1      51.774  58.965  22.311  1.00  0.00    +0.160 HD
ATOM     25  H   UNL     1      53.256  59.868  22.331  1.00  0.00    +0.160 HD
ENDBRANCH  20  21
ENDBRANCH   1  16
TORSDOF 7
ENDMDL
MODEL 2
REMARK VINA RESULT:    -7.669      3.628      5.392
REMARK INTER + INTRA:         -11.484
REMARK INTER:                 -10.668
REMARK INTRA:                  -0.816
REMARK UNBOUND:                -0.901
REMARK SMILES C[C@H](O)[C@@H](CCc1cccc(Cl)c1Cl)n1cnc(C(N)=O)c1
REMARK SMILES IDX 4 1 2 2 1 3 3 4 5 6 6 7 7 8 8 9 13 10 9 11 11 12 10 13 14 14
REMARK SMILES IDX 12 15 15 16 16 17 22 18 17 19 18 20 19 21 20 22 21 23
REMARK H PARENT 3 5 20 24 20 25
ROOT
ATOM      1  C   UNL     1      51.618  52.819  20.362  1.00  0.00    +0.117 C 
ENDROOT
BRANCH   1   2
ATOM      2  C   UNL     1      52.105  51.579  21.152  1.00  0.00    +0.134 C 
ATOM      3  C   UNL     1      52.790  50.546  20.260  1.00  0.00    +0.040 C 
BRANCH   2   4
ATOM      4  O   UNL     1      50.979  50.946  21.767  1.00  0.00    -0.391 OA
ATOM      5  H   UNL     1      51.209  50.752  22.693  1.00  0.00    +0.211 HD
ENDBRANCH   2   4
ENDBRANCH   1   2
BRANCH   1   6
ATOM      6  C   UNL     1      50.180  52.689  19.802  1.00  0.00    +0.033 C 
BRANCH   6   7
ATOM      7  C   UNL     1      50.087  52.219  18.346  1.00  0.00    +0.039 C 
BRANCH   7   8
ATOM      8  C   UNL     1      49.268  50.951  18.220  1.00  0.00    -0.028 A 
ATOM      9  C   UNL     1      49.829  49.752  18.697  1.00  0.00    +0.005 A 
ATOM     10  C   UNL     1      47.967  50.924  17.676  1.00  0.00    +0.062 A 
ATOM     11  C   UNL     1      49.124  48.552  18.626  1.00  0.00    +0.002 A 
ATOM     12  C   UNL     1      47.261  49.710  17.609  1.00  0.00    +0.059 A 
ATOM     13  C   UNL     1      47.843  48.530  18.082  1.00  0.00    +0.022 A 
ATOM     14 Cl   UNL     1      47.240  52.390  17.093  1.00  0.00    -0.082 Cl
ATOM     15 Cl   UNL     1      45.664  49.594  16.953  1.00  0.00    -0.083 Cl
ENDBRANCH   7   8
ENDBRANCH   6   7
ENDBRANCH   1   6
BRANCH   1  16
ATOM     16  N   UNL     1      51.799  54.080  21.074  1.00  0.00    -0.331 N 
ATOM     17  C   UNL     1      51.675  54.298  22.415  1.00  0.00    +0.200 A 
ATOM     18  C   UNL     1      52.124  55.279  20.492  1.00  0.00    +0.121 A 
ATOM     19  N   UNL     1      51.894  55.555  22.719  1.00  0.00    -0.232 NA
ATOM     20  C   UNL     1      52.180  56.199  21.527  1.00  0.00    +0.145 A 
BRANCH  20  21
ATOM     21  C   UNL     1      52.474  57.634  21.449  1.00  0.00    +0.268 C 
ATOM     22  N   UNL     1      53.290  58.139  22.430  1.00  0.00    -0.364 N 
ATOM     23  O   UNL     1      52.028  58.388  20.589  1.00  0.00    -0.268 OA
ATOM     24  H   UNL     1      53.497  57.620  23.268  1.00  0.00    +0.160 HD
ATOM     25  H   UNL     1      53.386  59.144  22.445  1.00  0.00    +0.160 HD
ENDBRANCH  20  21
ENDBRANCH   1  16
TORSDOF 7
ENDMDL
MODEL 3
REMARK VINA RESULT:    -7.406      5.028      6.769
REMARK INTER + INTRA:         -11.122
REMARK INTER:                 -10.566
REMARK INTRA:                  -0.556
REMARK UNBOUND:                -0.901
REMARK SMILES C[C@H](O)[C@@H](CCc1cccc(Cl)c1Cl)n1cnc(C(N)=O)c1
REMARK SMILES IDX 4 1 2 2 1 3 3 4 5 6 6 7 7 8 8 9 13 10 9 11 11 12 10 13 14 14
REMARK SMILES IDX 12 15 15 16 16 17 22 18 17 19 18 20 19 21 20 22 21 23
REMARK H PARENT 3 5 20 24 20 25
ROOT
ATOM      1  C   UNL     1      51.311  50.573  18.897  1.00  0.00    +0.117 C 
ENDROOT
BRANCH   1   2
ATOM      2  C   UNL     1      51.823  49.560  19.951  1.00  0.00    +0.134 C 
ATOM      3  C   UNL     1      50.759  49.203  20.987  1.00  0.00    +0.040 C 
BRANCH   2   4
ATOM      4  O   UNL     1      52.934  50.131  20.645  1.00  0.00    -0.391 OA
ATOM      5  H   UNL     1      52.659  50.309  21.562  1.00  0.00    +0.211 HD
ENDBRANCH   2   4
ENDBRANCH   1   2
BRANCH   1   6
ATOM      6  C   UNL     1      49.780  50.534  18.670  1.00  0.00    +0.033 C 
BRANCH   6   7
ATOM      7  C   UNL     1      49.338  50.049  17.285  1.00  0.00    +0.039 C 
BRANCH   7   8
ATOM      8  C   UNL     1      48.020  49.304  17.349  1.00  0.00    -0.028 A 
ATOM      9  C   UNL     1      47.566  48.871  18.608  1.00  0.00    +0.005 A 
ATOM     10  C   UNL     1      47.221  49.053  16.214  1.00  0.00    +0.062 A 
ATOM     11  C   UNL     1      46.355  48.194  18.741  1.00  0.00    +0.002 A 
ATOM     12  C   UNL     1      46.000  48.370  16.355  1.00  0.00    +0.059 A 
ATOM     13  C   UNL     1      45.573  47.943  17.616  1.00  0.00    +0.022 A 
ATOM     14 Cl   UNL     1      47.746  49.586  14.647  1.00  0.00    -0.082 Cl
ATOM     15 Cl   UNL     1      44.966  48.020  15.013  1.00  0.00    -0.083 Cl
ENDBRANCH   7   8
ENDBRANCH   6   7
ENDBRANCH   1   6
BRANCH   1  16
ATOM     16  N   UNL     1      51.782  51.937  19.115  1.00  0.00    -0.331 N 
ATOM     17  C   UNL     1      52.720  52.614  18.392  1.00  0.00    +0.200 A 
ATOM     18  C   UNL     1      51.351  52.775  20.112  1.00  0.00    +0.121 A 
ATOM     19  N   UNL     1      52.914  53.820  18.867  1.00  0.00    -0.232 NA
ATOM     20  C   UNL     1      52.065  53.952  19.954  1.00  0.00    +0.145 A 
BRANCH  20  21
ATOM     21  C   UNL     1      51.996  55.170  20.767  1.00  0.00    +0.268 C 
ATOM     22  N   UNL     1      51.774  56.340  20.086  1.00  0.00    -0.364 N 
ATOM     23  O   UNL     1      52.140  55.200  21.986  1.00  0.00    -0.268 OA
ATOM     24  H   UNL     1      51.869  56.400  19.085  1.00  0.00    +0.160 HD
ATOM     25  H   UNL     1      51.854  57.186  20.632  1.00  0.00    +0.160 HD
ENDBRANCH  20  21
ENDBRANCH   1  16
TORSDOF 7
ENDMDL
MODEL 4
REMARK VINA RESULT:    -7.328      2.937      5.227
REMARK INTER + INTRA:         -11.014
REMARK INTER:                 -10.239
REMARK INTRA:                  -0.775
REMARK UNBOUND:                -0.901
REMARK SMILES C[C@H](O)[C@@H](CCc1cccc(Cl)c1Cl)n1cnc(C(N)=O)c1
REMARK SMILES IDX 4 1 2 2 1 3 3 4 5 6 6 7 7 8 8 9 13 10 9 11 11 12 10 13 14 14
REMARK SMILES IDX 12 15 15 16 16 17 22 18 17 19 18 20 19 21 20 22 21 23
REMARK H PARENT 3 5 20 24 20 25
ROOT
ATOM      1  C   UNL     1      49.251  56.292  19.833  1.00  0.00    +0.117 C 
ENDROOT
BRANCH   1   2
ATOM      2  C   UNL     1      48.541  57.649  19.601  1.00  0.00    +0.134 C 
ATOM      3  C   UNL     1      47.480  57.945  20.659  1.00  0.00    +0.040 C 
BRANCH   2   4
ATOM      4  O   UNL     1      47.891  57.623  18.327  1.00  0.00    -0.391 OA
ATOM      5  H   UNL     1      48.097  58.456  17.865  1.00  0.00    +0.211 HD
ENDBRANCH   2   4
ENDBRANCH   1   2
BRANCH   1   6
ATOM      6  C   UNL     1      49.448  55.451  18.548  1.00  0.00    +0.033 C 
BRANCH   6   7
ATOM      7  C   UNL     1      48.606  54.173  18.469  1.00  0.00    +0.039 C 
BRANCH   7   8
ATOM      8  C   UNL     1      49.459  52.962  18.151  1.00  0.00    -0.028 A 
ATOM      9  C   UNL     1      50.792  52.957  18.600  1.00  0.00    +0.005 A 
ATOM     10  C   UNL     1      48.971  51.837  17.454  1.00  0.00    +0.062 A 
ATOM     11  C   UNL     1      51.628  51.868  18.355  1.00  0.00    +0.002 A 
ATOM     12  C   UNL     1      49.820  50.742  17.211  1.00  0.00    +0.059 A 
ATOM     13  C   UNL     1      51.143  50.763  17.661  1.00  0.00    +0.022 A 
ATOM     14 Cl   UNL     1      47.326  51.806  16.899  1.00  0.00    -0.082 Cl
ATOM     15 Cl   UNL     1      49.298  49.328  16.361  1.00  0.00    -0.083 Cl
ENDBRANCH   7   8
ENDBRANCH   6   7
ENDBRANCH   1   6
BRANCH   1  16
ATOM     16  N   UNL     1      50.491  56.399  20.594  1.00  0.00    -0.331 N 
ATOM     17  C   UNL     1      51.062  55.445  21.383  1.00  0.00    +0.200 A 
ATOM     18  C   UNL     1      51.296  57.509  20.646  1.00  0.00    +0.121 A 
ATOM     19  N   UNL     1      52.171  55.877  21.934  1.00  0.00    -0.232 NA
ATOM     20  C   UNL     1      52.345  57.177  21.488  1.00  0.00    +0.145 A 
BRANCH  20  21
ATOM     21  C   UNL     1      53.480  58.012  21.895  1.00  0.00    +0.268 C 
ATOM     22  N   UNL     1      53.169  59.212  22.481  1.00  0.00    -0.364 N 
ATOM     23  O   UNL     1      54.659  57.709  21.729  1.00  0.00    -0.268 OA
ATOM     24  H   UNL     1      52.240  59.599  22.440  1.00  0.00    +0.160 HD
ATOM     25  H   UNL     1      53.947  59.835  22.642  1.00  0.00    +0.160 HD
ENDBRANCH  20  21
ENDBRANCH   1  16
TORSDOF 7
ENDMDL
MODEL 5
REMARK VINA RESULT:    -7.280      2.476      4.821
REMARK INTER + INTRA:         -10.947
REMARK INTER:                 -10.194
REMARK INTRA:                  -0.754
REMARK UNBOUND:                -0.901
REMARK SMILES C[C@H](O)[C@@H](CCc1cccc(Cl)c1Cl)n1cnc(C(N)=O)c1
REMARK SMILES IDX 4 1 2 2 1 3 3 4 5 6 6 7 7 8 8 9 13 10 9 11 11 12 10 13 14 14
REMARK SMILES IDX 12 15 15 16 16 17 22 18 17 19 18 20 19 21 20 22 21 23
REMARK H PARENT 3 5 20 24 20 25
ROOT
ATOM      1  C   UNL     1      50.906  54.576  20.651  1.00  0.00    +0.117 C 
ENDROOT
BRANCH   1   2
ATOM      2  C   UNL     1      51.949  55.276  21.559  1.00  0.00    +0.134 C 
ATOM      3  C   UNL     1      51.310  56.260  22.537  1.00  0.00    +0.040 C 
BRANCH   2   4
ATOM      4  O   UNL     1      52.864  56.007  20.740  1.00  0.00    -0.391 OA
ATOM      5  H   UNL     1      53.271  56.703  21.286  1.00  0.00    +0.211 HD
ENDBRANCH   2   4
ENDBRANCH   1   2
BRANCH   1   6
ATOM      6  C   UNL     1      50.312  55.488  19.549  1.00  0.00    +0.033 C 
BRANCH   6   7
ATOM      7  C   UNL     1      48.782  55.482  19.453  1.00  0.00    +0.039 C 
BRANCH   7   8
ATOM      8  C   UNL     1      48.261  56.741  18.790  1.00  0.00    -0.028 A 
ATOM      9  C   UNL     1      48.037  56.712  17.401  1.00  0.00    +0.005 A 
ATOM     10  C   UNL     1      47.967  57.922  19.502  1.00  0.00    +0.062 A 
ATOM     11  C   UNL     1      47.544  57.830  16.730  1.00  0.00    +0.002 A 
ATOM     12  C   UNL     1      47.470  59.046  18.819  1.00  0.00    +0.059 A 
ATOM     13  C   UNL     1      47.262  58.996  17.438  1.00  0.00    +0.022 A 
ATOM     14 Cl   UNL     1      48.220  57.986  21.219  1.00  0.00    -0.082 Cl
ATOM     15 Cl   UNL     1      47.089  60.532  19.620  1.00  0.00    -0.083 Cl
ENDBRANCH   7   8
ENDBRANCH   6   7
ENDBRANCH   1   6
BRANCH   1  16
ATOM     16  N   UNL     1      51.363  53.305  20.101  1.00  0.00    -0.331 N 
ATOM     17  C   UNL     1      52.077  53.108  18.956  1.00  0.00    +0.200 A 
ATOM     18  C   UNL     1      51.134  52.072  20.658  1.00  0.00    +0.121 A 
ATOM     19  N   UNL     1      52.311  51.834  18.749  1.00  0.00    -0.232 NA
ATOM     20  C   UNL     1      51.728  51.155  19.805  1.00  0.00    +0.145 A 
BRANCH  20  21
ATOM     21  C   UNL     1      51.765  49.694  19.929  1.00  0.00    +0.268 C 
ATOM     22  N   UNL     1      52.993  49.104  19.774  1.00  0.00    -0.364 N 
ATOM     23  O   UNL     1      50.781  48.991  20.140  1.00  0.00    -0.268 OA
ATOM     24  H   UNL     1      53.778  49.603  19.386  1.00  0.00    +0.160 HD
ATOM     25  H   UNL     1      52.992  48.095  19.734  1.00  0.00    +0.160 HD
ENDBRANCH  20  21
ENDBRANCH   1  16
TORSDOF 7
ENDMDL
