MODEL 1
REMARK VINA RESULT:    -7.020      0.000      0.000
REMARK INTER + INTRA:         -10.878
REMARK INTER:                 -10.097
REMARK INTRA:                  -0.781
REMARK UNBOUND:                -0.781
REMARK SMILES CCCCCCC(C(C)O)n1cnc2cnccc21
REMARK SMILES IDX 5 1 4 2 3 3 2 4 1 5 6 6 7 7 8 8 9 9 10 10 11 12 12 13 19 14
REMARK SMILES IDX 13 15 18 16 14 17 17 18 15 19 16 20
REMARK H PARENT 10 11
ROOT
ATOM      1  C   UNL     1      49.940  58.116  21.348  1.00  0.00    +0.002 C 
ENDROOT
BRANCH   1   2
ATOM      2  C   UNL     1      48.436  58.089  21.633  1.00  0.00    +0.000 C 
BRANCH   2   3
ATOM      3  C   UNL     1      47.606  57.511  20.483  1.00  0.00    -0.000 C 
BRANCH   3   4
ATOM      4  C   UNL     1      48.383  56.691  19.449  1.00  0.00    -0.003 C 
ATOM      5  C   UNL     1      48.373  55.196  19.726  1.00  0.00    +0.004 C 
ENDBRANCH   3   4
ENDBRANCH   2   3
ENDBRANCH   1   2
BRANCH   1   6
ATOM      6  C   UNL     1      50.700  57.186  22.299  1.00  0.00    +0.028 C 
BRANCH   6   7
ATOM      7  C   UNL     1      52.107  56.797  21.788  1.00  0.00    +0.117 C 
BRANCH   7   8
ATOM      8  C   UNL     1      53.001  57.996  21.370  1.00  0.00    +0.134 C 
ATOM      9  C   UNL     1      54.436  57.646  20.995  1.00  0.00    +0.040 C 
BRANCH   8  10
ATOM     10  O   UNL     1      53.058  58.989  22.397  1.00  0.00    -0.391 OA
ATOM     11  H   UNL     1      53.989  59.197  22.585  1.00  0.00    +0.211 HD
ENDBRANCH   8  10
ENDBRANCH   7   8
BRANCH   7  12
ATOM     12  N   UNL     1      52.027  55.755  20.761  1.00  0.00    -0.325 N 
ATOM     13  C   UNL     1      52.089  55.950  19.406  1.00  0.00    +0.201 A 
ATOM     14  C   UNL     1      51.810  54.410  20.976  1.00  0.00    +0.071 A 
ATOM     15  N   UNL     1      51.935  54.831  18.737  1.00  0.00    -0.235 NA
ATOM     16  C   UNL     1      51.652  53.624  22.118  1.00  0.00    +0.048 A 
ATOM     17  C   UNL     1      51.764  53.860  19.694  1.00  0.00    +0.107 A 
ATOM     18  C   UNL     1      51.450  52.271  21.875  1.00  0.00    +0.113 A 
ATOM     19  C   UNL     1      51.558  52.484  19.554  1.00  0.00    +0.141 A 
ATOM     20  N   UNL     1      51.398  51.697  20.652  1.00  0.00    -0.262 NA
ENDBRANCH   7  12
ENDBRANCH   6   7
ENDBRANCH   1   6
TORSDOF 8
ENDMDL
MODEL 2
REMARK VINA RESULT:    -6.536      4.488      6.854
REMARK INTER + INTRA:         -10.182
REMARK INTER:                  -9.336
REMARK INTRA:                  -0.846
REMARK UNBOUND:                -0.781
REMARK SMILES CCCCCCC(C(C)O)n1cnc2cnccc21
REMARK SMILES IDX 5 1 4 2 3 3 2 4 1 5 6 6 7 7 8 8 9 9 10 10 11 12 12 13 19 14
REMARK SMILES IDX 13 15 18 16 14 17 17 18 15 19 16 20
REMARK H PARENT 10 11
ROOT
ATOM      1  C   UNL     1      49.249  49.339  19.116  1.00  0.00    +0.002 C 
ENDROOT
BRANCH   1   2
ATOM      2  C   UNL     1      48.288  48.610  18.173  1.00  0.00    +0.000 C 
BRANCH   2   3
ATOM      3  C   UNL     1      46.855  48.524  18.708  1.00  0.00    -0.000 C 
BRANCH   3   4
ATOM      4  C   UNL     1      45.753  48.929  17.726  1.00  0.00    -0.003 C 
ATOM      5  C   UNL     1      44.549  48.000  17.746  1.00  0.00    +0.004 C 
ENDBRANCH   3   4
ENDBRANCH   2   3
ENDBRANCH   1   2
BRANCH   1   6
ATOM      6  C   UNL     1      50.199  50.255  18.338  1.00  0.00    +0.028 C 
BRANCH   6   7
ATOM      7  C   UNL     1      49.713  51.721  18.258  1.00  0.00    +0.117 C 
BRANCH   7   8
ATOM      8  C   UNL     1      48.966  52.088  16.946  1.00  0.00    +0.134 C 
ATOM      9  C   UNL     1      47.446  52.110  17.040  1.00  0.00    +0.040 C 
BRANCH   8  10
ATOM     10  O   UNL     1      49.316  51.201  15.880  1.00  0.00    -0.391 OA
ATOM     11  H   UNL     1      48.714  50.437  15.895  1.00  0.00    +0.211 HD
ENDBRANCH   8  10
ENDBRANCH   7   8
BRANCH   7  12
ATOM     12  N   UNL     1      50.795  52.655  18.582  1.00  0.00    -0.325 N 
ATOM     13  C   UNL     1      52.121  52.492  18.279  1.00  0.00    +0.201 A 
ATOM     14  C   UNL     1      50.676  53.825  19.302  1.00  0.00    +0.071 A 
ATOM     15  N   UNL     1      52.860  53.471  18.745  1.00  0.00    -0.235 NA
ATOM     16  C   UNL     1      49.602  54.501  19.883  1.00  0.00    +0.048 A 
ATOM     17  C   UNL     1      51.981  54.314  19.382  1.00  0.00    +0.107 A 
ATOM     18  C   UNL     1      49.937  55.682  20.535  1.00  0.00    +0.113 A 
ATOM     19  C   UNL     1      52.214  55.514  20.059  1.00  0.00    +0.141 A 
ATOM     20  N   UNL     1      51.185  56.191  20.636  1.00  0.00    -0.262 NA
ENDBRANCH   7  12
ENDBRANCH   6   7
ENDBRANCH   1   6
TORSDOF 8
ENDMDL
MODEL 3
REMARK VINA RESULT:    -6.316      6.261      8.735
REMARK INTER + INTRA:          -9.866
REMARK INTER:                  -8.888
REMARK INTRA:                  -0.978
REMARK UNBOUND:                -0.781
REMARK SMILES CCCCCCC(C(C)O)n1cnc2cnccc21
REMARK SMILES IDX 5 1 4 2 3 3 2 4 1 5 6 6 7 7 8 8 9 9 10 10 11 12 12 13 19 14
REMARK SMILES IDX 13 15 18 16 14 17 17 18 15 19 16 20
REMARK H PARENT 10 11
ROOT
ATOM      1  C   UNL     1      45.502  49.283  17.636  1.00  0.00    +0.002 C 
ENDROOT
BRANCH   1   2
ATOM      2  C   UNL     1      44.545  48.103  17.452  1.00  0.00    +0.000 C 
BRANCH   2   3
ATOM      3  C   UNL     1      44.794  47.309  16.166  1.00  0.00    -0.000 C 
BRANCH   3   4
ATOM      4  C   UNL     1      45.005  48.144  14.900  1.00  0.00    -0.003 C 
ATOM      5  C   UNL     1      45.696  47.384  13.779  1.00  0.00    +0.004 C 
ENDBRANCH   3   4
ENDBRANCH   2   3
ENDBRANCH   1   2
BRANCH   1   6
ATOM      6  C   UNL     1      46.846  48.821  18.211  1.00  0.00    +0.028 C 
BRANCH   6   7
ATOM      7  C   UNL     1      48.067  49.364  17.435  1.00  0.00    +0.117 C 
BRANCH   7   8
ATOM      8  C   UNL     1      48.539  48.470  16.255  1.00  0.00    +0.134 C 
ATOM      9  C   UNL     1      48.600  46.976  16.546  1.00  0.00    +0.040 C 
BRANCH   8  10
ATOM     10  O   UNL     1      49.830  48.867  15.783  1.00  0.00    -0.391 OA
ATOM     11  H   UNL     1      49.850  49.835  15.695  1.00  0.00    +0.211 HD
ENDBRANCH   8  10
ENDBRANCH   7   8
BRANCH   7  12
ATOM     12  N   UNL     1      49.154  49.730  18.347  1.00  0.00    -0.325 N 
ATOM     13  C   UNL     1      49.751  48.905  19.264  1.00  0.00    +0.201 A 
ATOM     14  C   UNL     1      49.718  50.980  18.488  1.00  0.00    +0.071 A 
ATOM     15  N   UNL     1      50.659  49.530  19.976  1.00  0.00    -0.235 NA
ATOM     16  C   UNL     1      49.522  52.209  17.855  1.00  0.00    +0.048 A 
ATOM     17  C   UNL     1      50.658  50.822  19.507  1.00  0.00    +0.107 A 
ATOM     18  C   UNL     1      50.328  53.242  18.318  1.00  0.00    +0.113 A 
ATOM     19  C   UNL     1      51.423  51.924  19.900  1.00  0.00    +0.141 A 
ATOM     20  N   UNL     1      51.249  53.132  19.301  1.00  0.00    -0.262 NA
ENDBRANCH   7  12
ENDBRANCH   6   7
ENDBRANCH   1   6
TORSDOF 8
ENDMDL
MODEL 4
REMARK VINA RESULT:    -6.217      3.947      5.457
REMARK INTER + INTRA:          -9.723
REMARK INTER:                  -9.167
REMARK INTRA:                  -0.557
REMARK UNBOUND:                -0.781
REMARK SMILES CCCCCCC(C(C)O)n1cnc2cnccc21
REMARK SMILES IDX 5 1 4 2 3 3 2 4 1 5 6 6 7 7 8 8 9 9 10 10 11 12 12 13 19 14
REMARK SMILES IDX 13 15 18 16 14 17 17 18 15 19 16 20
REMARK H PARENT 10 11
ROOT
ATOM      1  C   UNL     1      49.068  54.392  19.927  1.00  0.00    +0.002 C 
ENDROOT
BRANCH   1   2
ATOM      2  C   UNL     1      49.309  55.842  20.353  1.00  0.00    +0.000 C 
BRANCH   2   3
ATOM      3  C   UNL     1      48.228  56.811  19.865  1.00  0.00    -0.000 C 
BRANCH   3   4
ATOM      4  C   UNL     1      47.812  57.899  20.858  1.00  0.00    -0.003 C 
ATOM      5  C   UNL     1      48.902  58.263  21.853  1.00  0.00    +0.004 C 
ENDBRANCH   3   4
ENDBRANCH   2   3
ENDBRANCH   1   2
BRANCH   1   6
ATOM      6  C   UNL     1      50.005  53.988  18.783  1.00  0.00    +0.028 C 
BRANCH   6   7
ATOM      7  C   UNL     1      50.212  52.461  18.667  1.00  0.00    +0.117 C 
BRANCH   7   8
ATOM      8  C   UNL     1      51.687  52.018  18.461  1.00  0.00    +0.134 C 
ATOM      9  C   UNL     1      52.386  51.464  19.696  1.00  0.00    +0.040 C 
BRANCH   8  10
ATOM     10  O   UNL     1      52.489  53.090  17.960  1.00  0.00    -0.391 OA
ATOM     11  H   UNL     1      52.043  53.933  18.148  1.00  0.00    +0.211 HD
ENDBRANCH   8  10
ENDBRANCH   7   8
BRANCH   7  12
ATOM     12  N   UNL     1      49.295  51.876  17.685  1.00  0.00    -0.325 N 
ATOM     13  C   UNL     1      48.639  52.552  16.690  1.00  0.00    +0.201 A 
ATOM     14  C   UNL     1      48.885  50.561  17.632  1.00  0.00    +0.071 A 
ATOM     15  N   UNL     1      47.844  51.768  16.000  1.00  0.00    -0.235 NA
ATOM     16  C   UNL     1      49.189  49.419  18.375  1.00  0.00    +0.048 A 
ATOM     17  C   UNL     1      47.984  50.524  16.566  1.00  0.00    +0.107 A 
ATOM     18  C   UNL     1      48.531  48.264  17.971  1.00  0.00    +0.113 A 
ATOM     19  C   UNL     1      47.375  49.310  16.236  1.00  0.00    +0.141 A 
ATOM     20  N   UNL     1      47.652  48.184  16.947  1.00  0.00    -0.262 NA
ENDBRANCH   7  12
ENDBRANCH   6   7
ENDBRANCH   1   6
TORSDOF 8
ENDMDL
MODEL 5
REMARK VINA RESULT:    -5.957      4.305      6.649
REMARK INTER + INTRA:          -9.349
REMARK INTER:                  -8.690
REMARK INTRA:                  -0.659
REMARK UNBOUND:                -0.781
REMARK SMILES CCCCCCC(C(C)O)n1cnc2cnccc21
REMARK SMILES IDX 5 1 4 2 3 3 2 4 1 5 6 6 7 7 8 8 9 9 10 10 11 12 12 13 19 14
REMARK SMILES IDX 13 15 18 16 14 17 17 18 15 19 16 20
REMARK H PARENT 10 11
ROOT
ATOM      1  C   UNL     1      47.512  53.068  17.140  1.00  0.00    +0.002 C 
ENDROOT
BRANCH   1   2
ATOM      2  C   UNL     1      48.800  53.689  17.687  1.00  0.00    +0.000 C 
BRANCH   2   3
ATOM      3  C   UNL     1      48.626  55.134  18.164  1.00  0.00    -0.000 C 
BRANCH   3   4
ATOM      4  C   UNL     1      48.692  55.347  19.679  1.00  0.00    -0.003 C 
ATOM      5  C   UNL     1      48.030  56.635  20.141  1.00  0.00    +0.004 C 
ENDBRANCH   3   4
ENDBRANCH   2   3
ENDBRANCH   1   2
BRANCH   1   6
ATOM      6  C   UNL     1      47.675  51.561  16.917  1.00  0.00    +0.028 C 
BRANCH   6   7
ATOM      7  C   UNL     1      49.140  51.128  16.682  1.00  0.00    +0.117 C 
BRANCH   7   8
ATOM      8  C   UNL     1      49.394  50.394  15.337  1.00  0.00    +0.134 C 
ATOM      9  C   UNL     1      48.301  49.428  14.897  1.00  0.00    +0.040 C 
BRANCH   8  10
ATOM     10  O   UNL     1      50.624  49.663  15.365  1.00  0.00    -0.391 OA
ATOM     11  H   UNL     1      50.467  48.767  15.021  1.00  0.00    +0.211 HD
ENDBRANCH   8  10
ENDBRANCH   7   8
BRANCH   7  12
ATOM     12  N   UNL     1      49.669  50.402  17.840  1.00  0.00    -0.325 N 
ATOM     13  C   UNL     1      49.104  49.304  18.432  1.00  0.00    +0.201 A 
ATOM     14  C   UNL     1      50.789  50.736  18.572  1.00  0.00    +0.071 A 
ATOM     15  N   UNL     1      49.779  48.905  19.485  1.00  0.00    -0.235 NA
ATOM     16  C   UNL     1      51.751  51.742  18.467  1.00  0.00    +0.048 A 
ATOM     17  C   UNL     1      50.835  49.780  19.587  1.00  0.00    +0.107 A 
ATOM     18  C   UNL     1      52.740  51.710  19.443  1.00  0.00    +0.113 A 
ATOM     19  C   UNL     1      51.874  49.832  20.521  1.00  0.00    +0.141 A 
ATOM     20  N   UNL     1      52.822  50.804  20.443  1.00  0.00    -0.262 NA
ENDBRANCH   7  12
ENDBRANCH   6   7
ENDBRANCH   1   6
TORSDOF 8
ENDMDL
