MODEL 1
REMARK VINA RESULT:    -6.603      0.000      0.000
REMARK INTER + INTRA:         -10.618
REMARK INTER:                  -9.499
REMARK INTRA:                  -1.119
REMARK UNBOUND:                -1.119
REMARK SMILES CCCCCCC(C(C)O)n1cnc2cccnc21
REMARK SMILES IDX 5 1 4 2 3 3 2 4 1 5 6 6 7 7 8 8 9 9 10 10 11 12 12 13 19 14
REMARK SMILES IDX 13 15 18 16 14 17 17 18 15 19 16 20
REMARK H PARENT 10 11
ROOT
ATOM      1  C   UNL     1      49.137  57.872  21.726  1.00  0.00    +0.002 C 
ENDROOT
BRANCH   1   2
ATOM      2  C   UNL     1      47.951  57.562  20.802  1.00  0.00    +0.000 C 
BRANCH   2   3
ATOM      3  C   UNL     1      48.334  56.720  19.582  1.00  0.00    -0.000 C 
BRANCH   3   4
ATOM      4  C   UNL     1      48.350  55.216  19.867  1.00  0.00    -0.003 C 
ATOM      5  C   UNL     1      48.723  54.369  18.661  1.00  0.00    +0.004 C 
ENDBRANCH   3   4
ENDBRANCH   2   3
ENDBRANCH   1   2
BRANCH   1   6
ATOM      6  C   UNL     1      50.407  58.266  20.966  1.00  0.00    +0.028 C 
BRANCH   6   7
ATOM      7  C   UNL     1      51.713  57.534  21.360  1.00  0.00    +0.118 C 
BRANCH   7   8
ATOM      8  C   UNL     1      53.007  58.385  21.441  1.00  0.00    +0.134 C 
ATOM      9  C   UNL     1      54.183  57.593  22.004  1.00  0.00    +0.040 C 
BRANCH   8  10
ATOM     10  O   UNL     1      52.835  59.553  22.244  1.00  0.00    -0.391 OA
ATOM     11  H   UNL     1      53.432  59.477  23.010  1.00  0.00    +0.211 HD
ENDBRANCH   8  10
ENDBRANCH   7   8
BRANCH   7  12
ATOM     12  N   UNL     1      51.899  56.300  20.600  1.00  0.00    -0.310 N 
ATOM     13  C   UNL     1      52.163  56.169  19.262  1.00  0.00    +0.202 A 
ATOM     14  C   UNL     1      51.846  55.035  21.127  1.00  0.00    +0.160 A 
ATOM     15  N   UNL     1      52.284  54.909  18.898  1.00  0.00    -0.235 NA
ATOM     16  N   UNL     1      51.612  54.686  22.409  1.00  0.00    -0.237 NA
ATOM     17  C   UNL     1      52.086  54.191  20.048  1.00  0.00    +0.108 A 
ATOM     18  C   UNL     1      51.626  53.342  22.586  1.00  0.00    +0.113 A 
ATOM     19  C   UNL     1      52.091  52.812  20.287  1.00  0.00    +0.034 A 
ATOM     20  C   UNL     1      51.851  52.389  21.596  1.00  0.00    +0.022 A 
ENDBRANCH   7  12
ENDBRANCH   6   7
ENDBRANCH   1   6
TORSDOF 8
ENDMDL
MODEL 2
REMARK VINA RESULT:    -6.515      1.181      1.672
REMARK INTER + INTRA:         -10.491
REMARK INTER:                 -10.016
REMARK INTRA:                  -0.475
REMARK UNBOUND:                -1.119
REMARK SMILES CCCCCCC(C(C)O)n1cnc2cccnc21
REMARK SMILES IDX 5 1 4 2 3 3 2 4 1 5 6 6 7 7 8 8 9 9 10 10 11 12 12 13 19 14
REMARK SMILES IDX 13 15 18 16 14 17 17 18 15 19 16 20
REMARK H PARENT 10 11
ROOT
ATOM      1  C   UNL     1      49.635  57.911  21.507  1.00  0.00    +0.002 C 
ENDROOT
BRANCH   1   2
ATOM      2  C   UNL     1      48.605  57.148  20.661  1.00  0.00    +0.000 C 
BRANCH   2   3
ATOM      3  C   UNL     1      47.247  57.851  20.577  1.00  0.00    -0.000 C 
BRANCH   3   4
ATOM      4  C   UNL     1      47.262  59.088  19.674  1.00  0.00    -0.003 C 
ATOM      5  C   UNL     1      47.615  58.783  18.227  1.00  0.00    +0.004 C 
ENDBRANCH   3   4
ENDBRANCH   2   3
ENDBRANCH   1   2
BRANCH   1   6
ATOM      6  C   UNL     1      50.563  56.990  22.302  1.00  0.00    +0.028 C 
BRANCH   6   7
ATOM      7  C   UNL     1      51.975  56.744  21.716  1.00  0.00    +0.118 C 
BRANCH   7   8
ATOM      8  C   UNL     1      52.805  57.992  21.317  1.00  0.00    +0.134 C 
ATOM      9  C   UNL     1      54.269  57.651  21.059  1.00  0.00    +0.040 C 
BRANCH   8  10
ATOM     10  O   UNL     1      52.756  59.013  22.313  1.00  0.00    -0.391 OA
ATOM     11  H   UNL     1      52.119  59.687  22.016  1.00  0.00    +0.211 HD
ENDBRANCH   8  10
ENDBRANCH   7   8
BRANCH   7  12
ATOM     12  N   UNL     1      51.963  55.720  20.674  1.00  0.00    -0.310 N 
ATOM     13  C   UNL     1      51.986  55.902  19.316  1.00  0.00    +0.202 A 
ATOM     14  C   UNL     1      51.937  54.368  20.900  1.00  0.00    +0.160 A 
ATOM     15  N   UNL     1      51.978  54.761  18.659  1.00  0.00    -0.235 NA
ATOM     16  N   UNL     1      51.910  53.731  22.089  1.00  0.00    -0.237 NA
ATOM     17  C   UNL     1      51.944  53.796  19.632  1.00  0.00    +0.108 A 
ATOM     18  C   UNL     1      51.884  52.383  21.949  1.00  0.00    +0.113 A 
ATOM     19  C   UNL     1      51.919  52.400  19.544  1.00  0.00    +0.034 A 
ATOM     20  C   UNL     1      51.887  51.686  20.744  1.00  0.00    +0.022 A 
ENDBRANCH   7  12
ENDBRANCH   6   7
ENDBRANCH   1   6
TORSDOF 8
ENDMDL
MODEL 3
REMARK VINA RESULT:    -6.369      3.030      5.752
REMARK INTER + INTRA:         -10.280
REMARK INTER:                  -9.589
REMARK INTRA:                  -0.691
REMARK UNBOUND:                -1.119
REMARK SMILES CCCCCCC(C(C)O)n1cnc2cccnc21
REMARK SMILES IDX 5 1 4 2 3 3 2 4 1 5 6 6 7 7 8 8 9 9 10 10 11 12 12 13 19 14
REMARK SMILES IDX 13 15 18 16 14 17 17 18 15 19 16 20
REMARK H PARENT 10 11
ROOT
ATOM      1  C   UNL     1      51.090  51.084  21.163  1.00  0.00    +0.002 C 
ENDROOT
BRANCH   1   2
ATOM      2  C   UNL     1      51.438  50.136  20.006  1.00  0.00    +0.000 C 
BRANCH   2   3
ATOM      3  C   UNL     1      50.476  48.952  19.880  1.00  0.00    -0.000 C 
BRANCH   3   4
ATOM      4  C   UNL     1      49.181  49.303  19.141  1.00  0.00    -0.003 C 
ATOM      5  C   UNL     1      48.891  48.397  17.954  1.00  0.00    +0.004 C 
ENDBRANCH   3   4
ENDBRANCH   2   3
ENDBRANCH   1   2
BRANCH   1   6
ATOM      6  C   UNL     1      51.643  52.498  20.971  1.00  0.00    +0.028 C 
BRANCH   6   7
ATOM      7  C   UNL     1      50.705  53.530  20.298  1.00  0.00    +0.118 C 
BRANCH   7   8
ATOM      8  C   UNL     1      50.801  53.678  18.758  1.00  0.00    +0.134 C 
ATOM      9  C   UNL     1      49.734  52.862  18.034  1.00  0.00    +0.040 C 
BRANCH   8  10
ATOM     10  O   UNL     1      52.078  53.282  18.256  1.00  0.00    -0.391 OA
ATOM     11  H   UNL     1      52.732  53.934  18.564  1.00  0.00    +0.211 HD
ENDBRANCH   8  10
ENDBRANCH   7   8
BRANCH   7  12
ATOM     12  N   UNL     1      50.725  54.818  20.989  1.00  0.00    -0.310 N 
ATOM     13  C   UNL     1      51.683  55.299  21.843  1.00  0.00    +0.202 A 
ATOM     14  C   UNL     1      49.759  55.785  20.879  1.00  0.00    +0.160 A 
ATOM     15  N   UNL     1      51.397  56.507  22.285  1.00  0.00    -0.235 NA
ATOM     16  N   UNL     1      48.630  55.741  20.142  1.00  0.00    -0.237 NA
ATOM     17  C   UNL     1      50.200  56.821  21.695  1.00  0.00    +0.108 A 
ATOM     18  C   UNL     1      47.892  56.872  20.267  1.00  0.00    +0.113 A 
ATOM     19  C   UNL     1      49.400  57.966  21.787  1.00  0.00    +0.034 A 
ATOM     20  C   UNL     1      48.215  57.978  21.047  1.00  0.00    +0.022 A 
ENDBRANCH   7  12
ENDBRANCH   6   7
ENDBRANCH   1   6
TORSDOF 8
ENDMDL
MODEL 4
REMARK VINA RESULT:    -6.263      4.224      6.517
REMARK INTER + INTRA:         -10.128
REMARK INTER:                  -9.339
REMARK INTRA:                  -0.788
REMARK UNBOUND:                -1.119
REMARK SMILES CCCCCCC(C(C)O)n1cnc2cccnc21
REMARK SMILES IDX 5 1 4 2 3 3 2 4 1 5 6 6 7 7 8 8 9 9 10 10 11 12 12 13 19 14
REMARK SMILES IDX 13 15 18 16 14 17 17 18 15 19 16 20
REMARK H PARENT 10 11
ROOT
ATOM      1  C   UNL     1      49.461  48.966  19.259  1.00  0.00    +0.002 C 
ENDROOT
BRANCH   1   2
ATOM      2  C   UNL     1      48.804  49.845  18.185  1.00  0.00    +0.000 C 
BRANCH   2   3
ATOM      3  C   UNL     1      47.342  49.483  17.914  1.00  0.00    -0.000 C 
BRANCH   3   4
ATOM      4  C   UNL     1      46.846  48.304  18.757  1.00  0.00    -0.003 C 
ATOM      5  C   UNL     1      45.386  47.953  18.516  1.00  0.00    +0.004 C 
ENDBRANCH   3   4
ENDBRANCH   2   3
ENDBRANCH   1   2
BRANCH   1   6
ATOM      6  C   UNL     1      50.493  49.717  20.105  1.00  0.00    +0.028 C 
BRANCH   6   7
ATOM      7  C   UNL     1      51.140  50.972  19.469  1.00  0.00    +0.118 C 
BRANCH   7   8
ATOM      8  C   UNL     1      52.489  50.777  18.730  1.00  0.00    +0.134 C 
ATOM      9  C   UNL     1      52.326  50.816  17.214  1.00  0.00    +0.040 C 
BRANCH   8  10
ATOM     10  O   UNL     1      53.121  49.545  19.076  1.00  0.00    -0.391 OA
ATOM     11  H   UNL     1      54.006  49.542  18.668  1.00  0.00    +0.211 HD
ENDBRANCH   8  10
ENDBRANCH   7   8
BRANCH   7  12
ATOM     12  N   UNL     1      51.162  52.103  20.394  1.00  0.00    -0.310 N 
ATOM     13  C   UNL     1      51.698  52.147  21.654  1.00  0.00    +0.202 A 
ATOM     14  C   UNL     1      50.643  53.345  20.131  1.00  0.00    +0.160 A 
ATOM     15  N   UNL     1      51.557  53.331  22.215  1.00  0.00    -0.235 NA
ATOM     16  N   UNL     1      50.020  53.756  19.007  1.00  0.00    -0.237 NA
ATOM     17  C   UNL     1      50.899  54.086  21.280  1.00  0.00    +0.108 A 
ATOM     18  C   UNL     1      49.625  55.052  19.085  1.00  0.00    +0.113 A 
ATOM     19  C   UNL     1      50.472  55.419  21.305  1.00  0.00    +0.034 A 
ATOM     20  C   UNL     1      49.817  55.901  20.170  1.00  0.00    +0.022 A 
ENDBRANCH   7  12
ENDBRANCH   6   7
ENDBRANCH   1   6
TORSDOF 8
ENDMDL
MODEL 5
REMARK VINA RESULT:    -6.236      5.212      7.315
REMARK INTER + INTRA:         -10.089
REMARK INTER:                  -9.483
REMARK INTRA:                  -0.606
REMARK UNBOUND:                -1.119
REMARK SMILES CCCCCCC(C(C)O)n1cnc2cccnc21
REMARK SMILES IDX 5 1 4 2 3 3 2 4 1 5 6 6 7 7 8 8 9 9 10 10 11 12 12 13 19 14
REMARK SMILES IDX 13 15 18 16 14 17 17 18 15 19 16 20
REMARK H PARENT 10 11
ROOT
ATOM      1  C   UNL     1      47.678  48.926  18.774  1.00  0.00    +0.002 C 
ENDROOT
BRANCH   1   2
ATOM      2  C   UNL     1      46.658  48.920  17.627  1.00  0.00    +0.000 C 
BRANCH   2   3
ATOM      3  C   UNL     1      45.274  48.418  18.046  1.00  0.00    -0.000 C 
BRANCH   3   4
ATOM      4  C   UNL     1      45.326  47.156  18.913  1.00  0.00    -0.003 C 
ATOM      5  C   UNL     1      44.152  47.025  19.871  1.00  0.00    +0.004 C 
ENDBRANCH   3   4
ENDBRANCH   2   3
ENDBRANCH   1   2
BRANCH   1   6
ATOM      6  C   UNL     1      49.125  49.056  18.294  1.00  0.00    +0.028 C 
BRANCH   6   7
ATOM      7  C   UNL     1      49.707  50.488  18.207  1.00  0.00    +0.118 C 
BRANCH   7   8
ATOM      8  C   UNL     1      50.375  50.902  16.870  1.00  0.00    +0.134 C 
ATOM      9  C   UNL     1      49.710  50.242  15.666  1.00  0.00    +0.040 C 
BRANCH   8  10
ATOM     10  O   UNL     1      51.765  50.581  16.839  1.00  0.00    -0.391 OA
ATOM     11  H   UNL     1      51.916  49.989  16.080  1.00  0.00    +0.211 HD
ENDBRANCH   8  10
ENDBRANCH   7   8
BRANCH   7  12
ATOM     12  N   UNL     1      50.528  50.816  19.371  1.00  0.00    -0.310 N 
ATOM     13  C   UNL     1      51.362  49.985  20.072  1.00  0.00    +0.202 A 
ATOM     14  C   UNL     1      50.604  52.053  19.957  1.00  0.00    +0.160 A 
ATOM     15  N   UNL     1      51.965  50.605  21.065  1.00  0.00    -0.235 NA
ATOM     16  N   UNL     1      49.951  53.177  19.595  1.00  0.00    -0.237 NA
ATOM     17  C   UNL     1      51.500  51.894  21.008  1.00  0.00    +0.108 A 
ATOM     18  C   UNL     1      50.255  54.228  20.397  1.00  0.00    +0.113 A 
ATOM     19  C   UNL     1      51.779  53.010  21.804  1.00  0.00    +0.034 A 
ATOM     20  C   UNL     1      51.131  54.204  21.479  1.00  0.00    +0.022 A 
ENDBRANCH   7  12
ENDBRANCH   6   7
ENDBRANCH   1   6
TORSDOF 8
ENDMDL
