MODEL 1
REMARK VINA RESULT:    -7.049      0.000      0.000
REMARK INTER + INTRA:         -11.599
REMARK INTER:                 -10.758
REMARK INTRA:                  -0.841
REMARK UNBOUND:                -0.841
REMARK SMILES CCCCCC[C@H]([C@@H](O)CF)n1cnc2c(N)nccc21
REMARK SMILES IDX 5 1 4 2 3 3 2 4 1 5 6 6 7 7 8 8 9 9 10 11 11 12 12 13 13 14
REMARK SMILES IDX 21 15 14 16 20 17 15 18 19 19 16 20 18 21 17 22
REMARK H PARENT 9 10 17 23 17 24
ROOT
ATOM      1  C   UNL     1      49.744  58.075  21.335  1.00  0.00    +0.002 C 
ENDROOT
BRANCH   1   2
ATOM      2  C   UNL     1      48.330  57.562  21.064  1.00  0.00    +0.000 C 
BRANCH   2   3
ATOM      3  C   UNL     1      47.906  57.460  19.595  1.00  0.00    -0.000 C 
BRANCH   3   4
ATOM      4  C   UNL     1      48.436  56.228  18.854  1.00  0.00    -0.003 C 
ATOM      5  C   UNL     1      48.394  54.948  19.675  1.00  0.00    +0.004 C 
ENDBRANCH   3   4
ENDBRANCH   2   3
ENDBRANCH   1   2
BRANCH   1   6
ATOM      6  C   UNL     1      50.608  57.211  22.264  1.00  0.00    +0.028 C 
BRANCH   6   7
ATOM      7  C   UNL     1      52.025  56.868  21.743  1.00  0.00    +0.120 C 
BRANCH   7   8
ATOM      8  C   UNL     1      52.847  58.110  21.319  1.00  0.00    +0.168 C 
BRANCH   8   9
ATOM      9  O   UNL     1      52.850  59.071  22.389  1.00  0.00    -0.388 OA
ATOM     10  H   UNL     1      53.254  58.628  23.162  1.00  0.00    +0.211 HD
ENDBRANCH   8   9
BRANCH   8  11
ATOM     11  C   UNL     1      54.286  57.816  20.903  1.00  0.00    +0.248 C 
ATOM     12  F   UNL     1      55.032  57.727  22.043  1.00  0.00    -0.248 F 
ENDBRANCH   8  11
ENDBRANCH   7   8
BRANCH   7  13
ATOM     13  N   UNL     1      51.986  55.840  20.693  1.00  0.00    -0.325 N 
ATOM     14  C   UNL     1      52.074  56.050  19.342  1.00  0.00    +0.201 A 
ATOM     15  C   UNL     1      51.827  54.485  20.891  1.00  0.00    +0.074 A 
ATOM     16  N   UNL     1      51.988  54.932  18.660  1.00  0.00    -0.233 NA
ATOM     17  C   UNL     1      51.704  53.687  22.026  1.00  0.00    +0.049 A 
ATOM     18  C   UNL     1      51.815  53.942  19.607  1.00  0.00    +0.131 A 
ATOM     19  C   UNL     1      51.573  52.330  21.770  1.00  0.00    +0.116 A 
ATOM     20  C   UNL     1      51.657  52.546  19.445  1.00  0.00    +0.151 A 
ATOM     21  N   UNL     1      51.552  51.760  20.542  1.00  0.00    -0.237 NA
BRANCH  20  22
ATOM     22  N   UNL     1      51.636  51.929  18.198  1.00  0.00    -0.382 N 
ATOM     23  H   UNL     1      51.100  51.072  18.231  1.00  0.00    +0.158 HD
ATOM     24  H   UNL     1      52.552  51.900  17.766  1.00  0.00    +0.158 HD
ENDBRANCH  20  22
ENDBRANCH   7  13
ENDBRANCH   6   7
ENDBRANCH   1   6
TORSDOF 10
ENDMDL
MODEL 2
REMARK VINA RESULT:    -6.706      4.548      6.745
REMARK INTER + INTRA:         -11.076
REMARK INTER:                 -10.061
REMARK INTRA:                  -1.015
REMARK UNBOUND:                -0.841
REMARK SMILES CCCCCC[C@H]([C@@H](O)CF)n1cnc2c(N)nccc21
REMARK SMILES IDX 5 1 4 2 3 3 2 4 1 5 6 6 7 7 8 8 9 9 10 11 11 12 12 13 13 14
REMARK SMILES IDX 21 15 14 16 20 17 15 18 19 19 16 20 18 21 17 22
REMARK H PARENT 9 10 17 23 17 24
ROOT
ATOM      1  C   UNL     1      49.387  48.954  19.513  1.00  0.00    +0.002 C 
ENDROOT
BRANCH   1   2
ATOM      2  C   UNL     1      48.530  48.757  18.261  1.00  0.00    +0.000 C 
BRANCH   2   3
ATOM      3  C   UNL     1      47.012  48.862  18.445  1.00  0.00    -0.000 C 
BRANCH   3   4
ATOM      4  C   UNL     1      46.236  49.263  17.186  1.00  0.00    -0.003 C 
ATOM      5  C   UNL     1      44.920  48.521  17.009  1.00  0.00    +0.004 C 
ENDBRANCH   3   4
ENDBRANCH   2   3
ENDBRANCH   1   2
BRANCH   1   6
ATOM      6  C   UNL     1      50.506  49.999  19.406  1.00  0.00    +0.028 C 
BRANCH   6   7
ATOM      7  C   UNL     1      50.046  51.461  19.185  1.00  0.00    +0.120 C 
BRANCH   7   8
ATOM      8  C   UNL     1      50.243  51.961  17.734  1.00  0.00    +0.168 C 
BRANCH   8   9
ATOM      9  O   UNL     1      51.119  51.061  17.032  1.00  0.00    -0.388 OA
ATOM     10  H   UNL     1      51.857  50.856  17.641  1.00  0.00    +0.211 HD
ENDBRANCH   8   9
BRANCH   8  11
ATOM     11  C   UNL     1      48.955  52.133  16.932  1.00  0.00    +0.248 C 
ATOM     12  F   UNL     1      47.917  52.128  17.820  1.00  0.00    -0.248 F 
ENDBRANCH   8  11
ENDBRANCH   7   8
BRANCH   7  13
ATOM     13  N   UNL     1      50.640  52.373  20.174  1.00  0.00    -0.325 N 
ATOM     14  C   UNL     1      51.630  52.072  21.072  1.00  0.00    +0.201 A 
ATOM     15  C   UNL     1      50.281  53.688  20.382  1.00  0.00    +0.074 A 
ATOM     16  N   UNL     1      51.935  53.094  21.836  1.00  0.00    -0.233 NA
ATOM     17  C   UNL     1      49.362  54.541  19.774  1.00  0.00    +0.049 A 
ATOM     18  C   UNL     1      51.091  54.111  21.434  1.00  0.00    +0.131 A 
ATOM     19  C   UNL     1      49.328  55.826  20.298  1.00  0.00    +0.116 A 
ATOM     20  C   UNL     1      50.971  55.436  21.914  1.00  0.00    +0.151 A 
ATOM     21  N   UNL     1      50.092  56.278  21.320  1.00  0.00    -0.237 NA
BRANCH  20  22
ATOM     22  N   UNL     1      51.743  55.933  22.959  1.00  0.00    -0.382 N 
ATOM     23  H   UNL     1      51.752  55.290  23.738  1.00  0.00    +0.158 HD
ATOM     24  H   UNL     1      51.550  56.909  23.151  1.00  0.00    +0.158 HD
ENDBRANCH  20  22
ENDBRANCH   7  13
ENDBRANCH   6   7
ENDBRANCH   1   6
TORSDOF 10
ENDMDL
MODEL 3
REMARK VINA RESULT:    -6.625      6.361      8.446
REMARK INTER + INTRA:         -10.951
REMARK INTER:                  -9.925
REMARK INTRA:                  -1.026
REMARK UNBOUND:                -0.841
REMARK SMILES CCCCCC[C@H]([C@@H](O)CF)n1cnc2c(N)nccc21
REMARK SMILES IDX 5 1 4 2 3 3 2 4 1 5 6 6 7 7 8 8 9 9 10 11 11 12 12 13 13 14
REMARK SMILES IDX 21 15 14 16 20 17 15 18 19 19 16 20 18 21 17 22
REMARK H PARENT 9 10 17 23 17 24
ROOT
ATOM      1  C   UNL     1      45.998  49.424  17.595  1.00  0.00    +0.002 C 
ENDROOT
BRANCH   1   2
ATOM      2  C   UNL     1      44.781  48.500  17.563  1.00  0.00    +0.000 C 
BRANCH   2   3
ATOM      3  C   UNL     1      44.785  47.397  16.498  1.00  0.00    -0.000 C 
BRANCH   3   4
ATOM      4  C   UNL     1      44.614  47.890  15.058  1.00  0.00    -0.003 C 
ATOM      5  C   UNL     1      45.884  47.814  14.224  1.00  0.00    +0.004 C 
ENDBRANCH   3   4
ENDBRANCH   2   3
ENDBRANCH   1   2
BRANCH   1   6
ATOM      6  C   UNL     1      47.369  48.735  17.549  1.00  0.00    +0.028 C 
BRANCH   6   7
ATOM      7  C   UNL     1      48.582  49.661  17.283  1.00  0.00    +0.120 C 
BRANCH   7   8
ATOM      8  C   UNL     1      49.337  49.332  15.973  1.00  0.00    +0.168 C 
BRANCH   8   9
ATOM      9  O   UNL     1      49.355  47.907  15.775  1.00  0.00    -0.388 OA
ATOM     10  H   UNL     1      50.262  47.674  15.495  1.00  0.00    +0.211 HD
ENDBRANCH   8   9
BRANCH   8  11
ATOM     11  C   UNL     1      48.777  50.005  14.722  1.00  0.00    +0.248 C 
ATOM     12  F   UNL     1      48.058  51.093  15.129  1.00  0.00    -0.248 F 
ENDBRANCH   8  11
ENDBRANCH   7   8
BRANCH   7  13
ATOM     13  N   UNL     1      49.482  49.724  18.444  1.00  0.00    -0.325 N 
ATOM     14  C   UNL     1      49.718  48.724  19.350  1.00  0.00    +0.201 A 
ATOM     15  C   UNL     1      50.227  50.817  18.832  1.00  0.00    +0.074 A 
ATOM     16  N   UNL     1      50.560  49.092  20.287  1.00  0.00    -0.233 NA
ATOM     17  C   UNL     1      50.409  52.094  18.304  1.00  0.00    +0.049 A 
ATOM     18  C   UNL     1      50.878  50.403  19.993  1.00  0.00    +0.131 A 
ATOM     19  C   UNL     1      51.281  52.900  19.022  1.00  0.00    +0.116 A 
ATOM     20  C   UNL     1      51.734  51.304  20.668  1.00  0.00    +0.151 A 
ATOM     21  N   UNL     1      51.930  52.542  20.155  1.00  0.00    -0.237 NA
BRANCH  20  22
ATOM     22  N   UNL     1      52.420  50.967  21.831  1.00  0.00    -0.382 N 
ATOM     23  H   UNL     1      52.884  51.776  22.222  1.00  0.00    +0.158 HD
ATOM     24  H   UNL     1      52.958  50.115  21.728  1.00  0.00    +0.158 HD
ENDBRANCH  20  22
ENDBRANCH   7  13
ENDBRANCH   6   7
ENDBRANCH   1   6
TORSDOF 10
ENDMDL
MODEL 4
REMARK VINA RESULT:    -6.581      4.266      6.616
REMARK INTER + INTRA:         -10.885
REMARK INTER:                 -10.478
REMARK INTRA:                  -0.407
REMARK UNBOUND:                -0.841
REMARK SMILES CCCCCC[C@H]([C@@H](O)CF)n1cnc2c(N)nccc21
REMARK SMILES IDX 5 1 4 2 3 3 2 4 1 5 6 6 7 7 8 8 9 9 10 11 11 12 12 13 13 14
REMARK SMILES IDX 21 15 14 16 20 17 15 18 19 19 16 20 18 21 17 22
REMARK H PARENT 9 10 17 23 17 24
ROOT
ATOM      1  C   UNL     1      49.879  50.805  17.395  1.00  0.00    +0.002 C 
ENDROOT
BRANCH   1   2
ATOM      2  C   UNL     1      48.978  49.586  17.194  1.00  0.00    +0.000 C 
BRANCH   2   3
ATOM      3  C   UNL     1      47.573  49.662  17.802  1.00  0.00    -0.000 C 
BRANCH   3   4
ATOM      4  C   UNL     1      47.276  48.609  18.874  1.00  0.00    -0.003 C 
ATOM      5  C   UNL     1      45.960  47.875  18.671  1.00  0.00    +0.004 C 
ENDBRANCH   3   4
ENDBRANCH   2   3
ENDBRANCH   1   2
BRANCH   1   6
ATOM      6  C   UNL     1      49.982  51.336  18.831  1.00  0.00    +0.028 C 
BRANCH   6   7
ATOM      7  C   UNL     1      51.416  51.461  19.403  1.00  0.00    +0.120 C 
BRANCH   7   8
ATOM      8  C   UNL     1      52.029  50.109  19.841  1.00  0.00    +0.168 C 
BRANCH   8   9
ATOM      9  O   UNL     1      53.199  50.351  20.642  1.00  0.00    -0.388 OA
ATOM     10  H   UNL     1      53.281  51.321  20.733  1.00  0.00    +0.211 HD
ENDBRANCH   8   9
BRANCH   8  11
ATOM     11  C   UNL     1      51.079  49.190  20.606  1.00  0.00    +0.248 C 
ATOM     12  F   UNL     1      50.557  48.302  19.709  1.00  0.00    -0.248 F 
ENDBRANCH   8  11
ENDBRANCH   7   8
BRANCH   7  13
ATOM     13  N   UNL     1      51.492  52.477  20.464  1.00  0.00    -0.325 N 
ATOM     14  C   UNL     1      51.317  52.270  21.807  1.00  0.00    +0.201 A 
ATOM     15  C   UNL     1      51.729  53.822  20.281  1.00  0.00    +0.074 A 
ATOM     16  N   UNL     1      51.429  53.379  22.498  1.00  0.00    -0.233 NA
ATOM     17  C   UNL     1      51.994  54.609  19.161  1.00  0.00    +0.049 A 
ATOM     18  C   UNL     1      51.668  54.367  21.563  1.00  0.00    +0.131 A 
ATOM     19  C   UNL     1      52.191  55.956  19.432  1.00  0.00    +0.116 A 
ATOM     20  C   UNL     1      51.863  55.757  21.737  1.00  0.00    +0.151 A 
ATOM     21  N   UNL     1      52.136  56.528  20.658  1.00  0.00    -0.237 NA
BRANCH  20  22
ATOM     22  N   UNL     1      51.819  56.375  22.983  1.00  0.00    -0.382 N 
ATOM     23  H   UNL     1      50.921  56.231  23.424  1.00  0.00    +0.158 HD
ATOM     24  H   UNL     1      52.192  57.317  22.960  1.00  0.00    +0.158 HD
ENDBRANCH  20  22
ENDBRANCH   7  13
ENDBRANCH   6   7
ENDBRANCH   1   6
TORSDOF 10
ENDMDL
MODEL 5
REMARK VINA RESULT:    -6.519      3.225      5.249
REMARK INTER + INTRA:         -10.790
REMARK INTER:                 -10.298
REMARK INTRA:                  -0.492
REMARK UNBOUND:                -0.841
REMARK SMILES CCCCCC[C@H]([C@@H](O)CF)n1cnc2c(N)nccc21
REMARK SMILES IDX 5 1 4 2 3 3 2 4 1 5 6 6 7 7 8 8 9 9 10 11 11 12 12 13 13 14
REMARK SMILES IDX 21 15 14 16 20 17 15 18 19 19 16 20 18 21 17 22
REMARK H PARENT 9 10 17 23 17 24
ROOT
ATOM      1  C   UNL     1      49.024  53.683  17.717  1.00  0.00    +0.002 C 
ENDROOT
BRANCH   1   2
ATOM      2  C   UNL     1      48.424  54.463  18.887  1.00  0.00    +0.000 C 
BRANCH   2   3
ATOM      3  C   UNL     1      48.775  55.953  18.970  1.00  0.00    -0.000 C 
BRANCH   3   4
ATOM      4  C   UNL     1      48.712  56.553  20.378  1.00  0.00    -0.003 C 
ATOM      5  C   UNL     1      47.601  57.576  20.564  1.00  0.00    +0.004 C 
ENDBRANCH   3   4
ENDBRANCH   2   3
ENDBRANCH   1   2
BRANCH   1   6
ATOM      6  C   UNL     1      49.688  52.345  18.070  1.00  0.00    +0.028 C 
BRANCH   6   7
ATOM      7  C   UNL     1      51.150  52.428  18.573  1.00  0.00    +0.120 C 
BRANCH   7   8
ATOM      8  C   UNL     1      51.941  51.108  18.401  1.00  0.00    +0.168 C 
BRANCH   8   9
ATOM      9  O   UNL     1      52.783  51.202  17.238  1.00  0.00    -0.388 OA
ATOM     10  H   UNL     1      52.452  50.542  16.598  1.00  0.00    +0.211 HD
ENDBRANCH   8   9
BRANCH   8  11
ATOM     11  C   UNL     1      52.790  50.706  19.604  1.00  0.00    +0.248 C 
ATOM     12  F   UNL     1      52.879  49.343  19.606  1.00  0.00    -0.248 F 
ENDBRANCH   8  11
ENDBRANCH   7   8
BRANCH   7  13
ATOM     13  N   UNL     1      51.225  52.947  19.946  1.00  0.00    -0.325 N 
ATOM     14  C   UNL     1      50.792  52.315  21.083  1.00  0.00    +0.201 A 
ATOM     15  C   UNL     1      51.724  54.176  20.322  1.00  0.00    +0.074 A 
ATOM     16  N   UNL     1      50.980  53.044  22.157  1.00  0.00    -0.233 NA
ATOM     17  C   UNL     1      52.308  55.231  19.624  1.00  0.00    +0.049 A 
ATOM     18  C   UNL     1      51.545  54.220  21.704  1.00  0.00    +0.131 A 
ATOM     19  C   UNL     1      52.691  56.307  20.412  1.00  0.00    +0.116 A 
ATOM     20  C   UNL     1      51.950  55.370  22.421  1.00  0.00    +0.151 A 
ATOM     21  N   UNL     1      52.533  56.394  21.754  1.00  0.00    -0.237 NA
BRANCH  20  22
ATOM     22  N   UNL     1      51.806  55.489  23.799  1.00  0.00    -0.382 N 
ATOM     23  H   UNL     1      50.873  55.797  24.038  1.00  0.00    +0.158 HD
ATOM     24  H   UNL     1      52.589  55.969  24.229  1.00  0.00    +0.158 HD
ENDBRANCH  20  22
ENDBRANCH   7  13
ENDBRANCH   6   7
ENDBRANCH   1   6
TORSDOF 10
ENDMDL
