MODEL 1
REMARK VINA RESULT:    -7.692      0.000      0.000
REMARK INTER + INTRA:         -10.059
REMARK INTER:                  -9.490
REMARK INTRA:                  -0.568
REMARK UNBOUND:                -0.568
REMARK SMILES Nc1ccnc2c1ncn2C1O[C@H](CO)[C@@H](O)[C@H]1O
REMARK SMILES IDX 11 1 12 2 13 3 16 4 18 5 10 6 2 7 3 8 7 9 4 10 8 11 6 12
REMARK SMILES IDX 5 13 9 14 1 15 19 18 14 20 15 21 17 23
REMARK H PARENT 1 16 1 17 19 19 15 22 17 24
ROOT
ATOM      1  C   UNL     1      51.310  52.014  19.438  1.00  0.00    +0.253 C 
ATOM      2  O   UNL     1      50.352  51.026  19.895  1.00  0.00    -0.347 OA
ATOM      3  C   UNL     1      50.974  49.728  19.758  1.00  0.00    +0.178 C 
ATOM      4  C   UNL     1      52.470  49.977  19.860  1.00  0.00    +0.179 C 
ATOM      5  C   UNL     1      52.614  51.279  19.088  1.00  0.00    +0.195 C 
ENDROOT
BRANCH   1   6
ATOM      6  N   UNL     1      51.490  53.024  20.461  1.00  0.00    -0.285 N 
ATOM      7  C   UNL     1      52.038  56.346  21.480  1.00  0.00    +0.063 A 
ATOM      8  C   UNL     1      52.091  56.999  20.241  1.00  0.00    +0.048 A 
ATOM      9  C   UNL     1      51.820  54.952  21.442  1.00  0.00    +0.131 A 
ATOM     10  C   UNL     1      51.938  56.268  19.065  1.00  0.00    +0.116 A 
ATOM     11  N   UNL     1      51.715  54.006  22.440  1.00  0.00    -0.233 NA
ATOM     12  C   UNL     1      51.681  54.353  20.196  1.00  0.00    +0.164 A 
ATOM     13  N   UNL     1      51.734  54.931  18.980  1.00  0.00    -0.236 NA
ATOM     14  C   UNL     1      51.506  52.866  21.818  1.00  0.00    +0.204 A 
BRANCH   7  15
ATOM     15  N   UNL     1      52.193  57.075  22.677  1.00  0.00    -0.397 N 
ATOM     16  H   UNL     1      52.625  57.978  22.499  1.00  0.00    +0.156 HD
ATOM     17  H   UNL     1      51.293  57.236  23.122  1.00  0.00    +0.156 HD
ENDBRANCH   7  15
ENDBRANCH   1   6
BRANCH   5  18
ATOM     18  O   UNL     1      52.685  50.968  17.683  1.00  0.00    -0.386 OA
ATOM     19  H   UNL     1      52.315  50.069  17.577  1.00  0.00    +0.211 HD
ENDBRANCH   5  18
BRANCH   3  20
ATOM     20  C   UNL     1      50.445  48.794  20.841  1.00  0.00    +0.191 C 
BRANCH  20  21
ATOM     21  O   UNL     1      51.347  47.701  21.017  1.00  0.00    -0.394 OA
ATOM     22  H   UNL     1      51.758  47.544  20.146  1.00  0.00    +0.210 HD
ENDBRANCH  20  21
ENDBRANCH   3  20
BRANCH   4  23
ATOM     23  O   UNL     1      53.247  48.932  19.297  1.00  0.00    -0.387 OA
ATOM     24  H   UNL     1      53.005  48.905  18.347  1.00  0.00    +0.211 HD
ENDBRANCH   4  23
TORSDOF 6
ENDMDL
MODEL 2
REMARK VINA RESULT:    -7.485      1.453      1.453
REMARK INTER + INTRA:          -9.804
REMARK INTER:                  -9.325
REMARK INTRA:                  -0.479
REMARK UNBOUND:                -0.568
REMARK SMILES Nc1ccnc2c1ncn2C1O[C@H](CO)[C@@H](O)[C@H]1O
REMARK SMILES IDX 11 1 12 2 13 3 16 4 18 5 10 6 2 7 3 8 7 9 4 10 8 11 6 12
REMARK SMILES IDX 5 13 9 14 1 15 19 18 14 20 15 21 17 23
REMARK H PARENT 1 16 1 17 19 19 15 22 17 24
ROOT
ATOM      1  C   UNL     1      51.058  52.167  19.091  1.00  0.00    +0.253 C 
ATOM      2  O   UNL     1      50.237  51.107  19.643  1.00  0.00    -0.347 OA
ATOM      3  C   UNL     1      50.999  49.882  19.555  1.00  0.00    +0.178 C 
ATOM      4  C   UNL     1      52.459  50.305  19.582  1.00  0.00    +0.179 C 
ATOM      5  C   UNL     1      52.425  51.564  18.731  1.00  0.00    +0.195 C 
ENDROOT
BRANCH   1   6
ATOM      6  N   UNL     1      51.156  53.252  20.046  1.00  0.00    -0.285 N 
ATOM      7  C   UNL     1      50.099  56.345  21.348  1.00  0.00    +0.063 A 
ATOM      8  C   UNL     1      49.031  56.644  20.491  1.00  0.00    +0.048 A 
ATOM      9  C   UNL     1      50.773  55.129  21.105  1.00  0.00    +0.131 A 
ATOM     10  C   UNL     1      48.698  55.761  19.465  1.00  0.00    +0.116 A 
ATOM     11  N   UNL     1      51.845  54.525  21.729  1.00  0.00    -0.233 NA
ATOM     12  C   UNL     1      50.329  54.343  20.048  1.00  0.00    +0.164 A 
ATOM     13  N   UNL     1      49.319  54.588  19.190  1.00  0.00    -0.236 NA
ATOM     14  C   UNL     1      52.039  53.399  21.077  1.00  0.00    +0.204 A 
BRANCH   7  15
ATOM     15  N   UNL     1      50.448  57.231  22.388  1.00  0.00    -0.397 N 
ATOM     16  H   UNL     1      51.415  57.532  22.298  1.00  0.00    +0.156 HD
ATOM     17  H   UNL     1      49.856  58.058  22.372  1.00  0.00    +0.156 HD
ENDBRANCH   7  15
ENDBRANCH   1   6
BRANCH   5  18
ATOM     18  O   UNL     1      52.484  51.176  17.344  1.00  0.00    -0.386 OA
ATOM     19  H   UNL     1      53.393  51.369  17.039  1.00  0.00    +0.211 HD
ENDBRANCH   5  18
BRANCH   3  20
ATOM     20  C   UNL     1      50.618  48.963  20.711  1.00  0.00    +0.191 C 
BRANCH  20  21
ATOM     21  O   UNL     1      51.499  47.839  20.744  1.00  0.00    -0.394 OA
ATOM     22  H   UNL     1      51.160  47.248  21.442  1.00  0.00    +0.210 HD
ENDBRANCH  20  21
ENDBRANCH   3  20
BRANCH   4  23
ATOM     23  O   UNL     1      53.332  49.320  19.048  1.00  0.00    -0.387 OA
ATOM     24  H   UNL     1      53.123  48.493  19.529  1.00  0.00    +0.211 HD
ENDBRANCH   4  23
TORSDOF 6
ENDMDL
MODEL 3
REMARK VINA RESULT:    -6.733      3.681      6.309
REMARK INTER + INTRA:          -8.876
REMARK INTER:                  -8.373
REMARK INTRA:                  -0.503
REMARK UNBOUND:                -0.568
REMARK SMILES Nc1ccnc2c1ncn2C1O[C@H](CO)[C@@H](O)[C@H]1O
REMARK SMILES IDX 11 1 12 2 13 3 16 4 18 5 10 6 2 7 3 8 7 9 4 10 8 11 6 12
REMARK SMILES IDX 5 13 9 14 1 15 19 18 14 20 15 21 17 23
REMARK H PARENT 1 16 1 17 19 19 15 22 17 24
ROOT
ATOM      1  C   UNL     1      51.691  55.880  20.080  1.00  0.00    +0.253 C 
ATOM      2  O   UNL     1      53.057  56.343  19.924  1.00  0.00    -0.347 OA
ATOM      3  C   UNL     1      53.157  57.621  20.590  1.00  0.00    +0.178 C 
ATOM      4  C   UNL     1      52.092  57.603  21.674  1.00  0.00    +0.179 C 
ATOM      5  C   UNL     1      50.949  56.894  20.965  1.00  0.00    +0.195 C 
ENDROOT
BRANCH   1   6
ATOM      6  N   UNL     1      51.693  54.543  20.638  1.00  0.00    -0.285 N 
ATOM      7  C   UNL     1      52.026  51.054  20.333  1.00  0.00    +0.063 A 
ATOM      8  C   UNL     1      52.317  50.932  18.968  1.00  0.00    +0.048 A 
ATOM      9  C   UNL     1      51.828  52.366  20.815  1.00  0.00    +0.131 A 
ATOM     10  C   UNL     1      52.390  52.073  18.170  1.00  0.00    +0.116 A 
ATOM     11  N   UNL     1      51.529  52.853  22.070  1.00  0.00    -0.233 NA
ATOM     12  C   UNL     1      51.935  53.412  19.906  1.00  0.00    +0.164 A 
ATOM     13  N   UNL     1      52.202  53.349  18.586  1.00  0.00    -0.236 NA
ATOM     14  C   UNL     1      51.467  54.160  21.929  1.00  0.00    +0.204 A 
BRANCH   7  15
ATOM     15  N   UNL     1      51.948  49.907  21.150  1.00  0.00    -0.397 N 
ATOM     16  H   UNL     1      51.399  50.094  21.985  1.00  0.00    +0.156 HD
ATOM     17  H   UNL     1      51.512  49.136  20.650  1.00  0.00    +0.156 HD
ENDBRANCH   7  15
ENDBRANCH   1   6
BRANCH   5  18
ATOM     18  O   UNL     1      50.235  57.865  20.174  1.00  0.00    -0.386 OA
ATOM     19  H   UNL     1      50.158  57.488  19.275  1.00  0.00    +0.211 HD
ENDBRANCH   5  18
BRANCH   3  20
ATOM     20  C   UNL     1      54.569  57.799  21.138  1.00  0.00    +0.191 C 
BRANCH  20  21
ATOM     21  O   UNL     1      54.541  57.758  22.565  1.00  0.00    -0.394 OA
ATOM     22  H   UNL     1      55.246  58.361  22.869  1.00  0.00    +0.210 HD
ENDBRANCH  20  21
ENDBRANCH   3  20
BRANCH   4  23
ATOM     23  O   UNL     1      51.726  58.902  22.115  1.00  0.00    -0.387 OA
ATOM     24  H   UNL     1      51.108  58.764  22.863  1.00  0.00    +0.211 HD
ENDBRANCH   4  23
TORSDOF 6
ENDMDL
MODEL 4
REMARK VINA RESULT:    -6.174      5.313      7.215
REMARK INTER + INTRA:          -8.186
REMARK INTER:                  -7.600
REMARK INTRA:                  -0.587
REMARK UNBOUND:                -0.568
REMARK SMILES Nc1ccnc2c1ncn2C1O[C@H](CO)[C@@H](O)[C@H]1O
REMARK SMILES IDX 11 1 12 2 13 3 16 4 18 5 10 6 2 7 3 8 7 9 4 10 8 11 6 12
REMARK SMILES IDX 5 13 9 14 1 15 19 18 14 20 15 21 17 23
REMARK H PARENT 1 16 1 17 19 19 15 22 17 24
ROOT
ATOM      1  C   UNL     1      47.377  47.921  17.555  1.00  0.00    +0.253 C 
ATOM      2  O   UNL     1      46.895  47.432  16.278  1.00  0.00    -0.347 OA
ATOM      3  C   UNL     1      45.452  47.391  16.349  1.00  0.00    +0.178 C 
ATOM      4  C   UNL     1      45.063  48.448  17.369  1.00  0.00    +0.179 C 
ATOM      5  C   UNL     1      46.154  48.278  18.414  1.00  0.00    +0.195 C 
ENDROOT
BRANCH   1   6
ATOM      6  N   UNL     1      48.263  49.047  17.340  1.00  0.00    -0.285 N 
ATOM      7  C   UNL     1      50.930  51.127  18.309  1.00  0.00    +0.063 A 
ATOM      8  C   UNL     1      51.317  50.521  19.511  1.00  0.00    +0.048 A 
ATOM      9  C   UNL     1      49.850  50.527  17.627  1.00  0.00    +0.131 A 
ATOM     10  C   UNL     1      50.636  49.395  19.970  1.00  0.00    +0.116 A 
ATOM     11  N   UNL     1      49.212  50.844  16.445  1.00  0.00    -0.233 NA
ATOM     12  C   UNL     1      49.267  49.402  18.199  1.00  0.00    +0.164 A 
ATOM     13  N   UNL     1      49.592  48.788  19.354  1.00  0.00    -0.236 NA
ATOM     14  C   UNL     1      48.276  49.931  16.299  1.00  0.00    +0.204 A 
BRANCH   7  15
ATOM     15  N   UNL     1      51.608  52.268  17.835  1.00  0.00    -0.397 N 
ATOM     16  H   UNL     1      51.047  53.106  17.969  1.00  0.00    +0.156 HD
ATOM     17  H   UNL     1      52.489  52.396  18.327  1.00  0.00    +0.156 HD
ENDBRANCH   7  15
ENDBRANCH   1   6
BRANCH   5  18
ATOM     18  O   UNL     1      45.783  47.192  19.285  1.00  0.00    -0.386 OA
ATOM     19  H   UNL     1      46.613  46.737  19.533  1.00  0.00    +0.211 HD
ENDBRANCH   5  18
BRANCH   3  20
ATOM     20  C   UNL     1      44.868  47.648  14.964  1.00  0.00    +0.191 C 
BRANCH  20  21
ATOM     21  O   UNL     1      43.449  47.495  15.004  1.00  0.00    -0.394 OA
ATOM     22  H   UNL     1      43.181  47.204  14.112  1.00  0.00    +0.210 HD
ENDBRANCH  20  21
ENDBRANCH   3  20
BRANCH   4  23
ATOM     23  O   UNL     1      43.766  48.245  17.911  1.00  0.00    -0.387 OA
ATOM     24  H   UNL     1      43.907  47.996  18.848  1.00  0.00    +0.211 HD
ENDBRANCH   4  23
TORSDOF 6
ENDMDL
MODEL 5
REMARK VINA RESULT:    -5.899      3.431      6.100
REMARK INTER + INTRA:          -7.847
REMARK INTER:                  -7.399
REMARK INTRA:                  -0.448
REMARK UNBOUND:                -0.568
REMARK SMILES Nc1ccnc2c1ncn2C1O[C@H](CO)[C@@H](O)[C@H]1O
REMARK SMILES IDX 11 1 12 2 13 3 16 4 18 5 10 6 2 7 3 8 7 9 4 10 8 11 6 12
REMARK SMILES IDX 5 13 9 14 1 15 19 18 14 20 15 21 17 23
REMARK H PARENT 1 16 1 17 19 19 15 22 17 24
ROOT
ATOM      1  C   UNL     1      50.408  52.291  20.064  1.00  0.00    +0.253 C 
ATOM      2  O   UNL     1      49.758  53.536  19.703  1.00  0.00    -0.347 OA
ATOM      3  C   UNL     1      50.227  54.548  20.622  1.00  0.00    +0.178 C 
ATOM      4  C   UNL     1      51.602  54.087  21.074  1.00  0.00    +0.179 C 
ATOM      5  C   UNL     1      51.389  52.588  21.209  1.00  0.00    +0.195 C 
ENDROOT
BRANCH   1   6
ATOM      6  N   UNL     1      51.057  51.726  18.899  1.00  0.00    -0.285 N 
ATOM      7  C   UNL     1      50.968  50.244  15.710  1.00  0.00    +0.063 A 
ATOM      8  C   UNL     1      49.588  50.209  15.471  1.00  0.00    +0.048 A 
ATOM      9  C   UNL     1      51.374  50.800  16.941  1.00  0.00    +0.131 A 
ATOM     10  C   UNL     1      48.705  50.700  16.431  1.00  0.00    +0.116 A 
ATOM     11  N   UNL     1      52.620  50.991  17.503  1.00  0.00    -0.233 NA
ATOM     12  C   UNL     1      50.384  51.256  17.804  1.00  0.00    +0.164 A 
ATOM     13  N   UNL     1      49.048  51.236  17.628  1.00  0.00    -0.236 NA
ATOM     14  C   UNL     1      52.393  51.558  18.668  1.00  0.00    +0.204 A 
BRANCH   7  15
ATOM     15  N   UNL     1      51.871  49.748  14.747  1.00  0.00    -0.397 N 
ATOM     16  H   UNL     1      51.818  50.288  13.887  1.00  0.00    +0.156 HD
ATOM     17  H   UNL     1      52.827  49.793  15.090  1.00  0.00    +0.156 HD
ENDBRANCH   7  15
ENDBRANCH   1   6
BRANCH   5  18
ATOM     18  O   UNL     1      50.795  52.328  22.497  1.00  0.00    -0.386 OA
ATOM     19  H   UNL     1      49.927  51.913  22.324  1.00  0.00    +0.211 HD
ENDBRANCH   5  18
BRANCH   3  20
ATOM     20  C   UNL     1      50.248  55.902  19.918  1.00  0.00    +0.191 C 
BRANCH  20  21
ATOM     21  O   UNL     1      50.972  56.845  20.710  1.00  0.00    -0.394 OA
ATOM     22  H   UNL     1      51.557  56.321  21.290  1.00  0.00    +0.210 HD
ENDBRANCH  20  21
ENDBRANCH   3  20
BRANCH   4  23
ATOM     23  O   UNL     1      52.014  54.682  22.296  1.00  0.00    -0.387 OA
ATOM     24  H   UNL     1      52.988  54.578  22.326  1.00  0.00    +0.211 HD
ENDBRANCH   4  23
TORSDOF 6
ENDMDL
