MODEL 1
REMARK VINA RESULT:    -6.811      0.000      0.000
REMARK INTER + INTRA:         -10.886
REMARK INTER:                 -10.195
REMARK INTRA:                  -0.691
REMARK UNBOUND:                -0.691
REMARK SMILES CCCCCCC(C(C)O)n1cnc(C(=O)NC)c1
REMARK SMILES IDX 5 1 4 2 3 3 2 4 1 5 6 6 7 7 8 8 9 9 10 10 11 12 12 13 19 14
REMARK SMILES IDX 13 15 14 16 15 17 16 18 17 19 18 20
REMARK H PARENT 10 11 17 21
ROOT
ATOM      1  C   UNL     1      49.277  57.866  21.906  1.00  0.00    +0.002 C 
ENDROOT
BRANCH   1   2
ATOM      2  C   UNL     1      48.050  58.233  21.066  1.00  0.00    +0.000 C 
BRANCH   2   3
ATOM      3  C   UNL     1      47.614  57.192  20.028  1.00  0.00    -0.000 C 
BRANCH   3   4
ATOM      4  C   UNL     1      47.834  57.583  18.565  1.00  0.00    -0.003 C 
ATOM      5  C   UNL     1      47.406  59.008  18.247  1.00  0.00    +0.004 C 
ENDBRANCH   3   4
ENDBRANCH   2   3
ENDBRANCH   1   2
BRANCH   1   6
ATOM      6  C   UNL     1      50.488  57.446  21.062  1.00  0.00    +0.028 C 
BRANCH   6   7
ATOM      7  C   UNL     1      51.603  56.787  21.907  1.00  0.00    +0.116 C 
BRANCH   7   8
ATOM      8  C   UNL     1      52.980  57.487  21.769  1.00  0.00    +0.134 C 
ATOM      9  C   UNL     1      52.930  59.009  21.710  1.00  0.00    +0.040 C 
BRANCH   8  10
ATOM     10  O   UNL     1      53.809  57.140  22.886  1.00  0.00    -0.391 OA
ATOM     11  H   UNL     1      54.034  57.962  23.357  1.00  0.00    +0.211 HD
ENDBRANCH   8  10
ENDBRANCH   7   8
BRANCH   7  12
ATOM     12  N   UNL     1      51.720  55.346  21.713  1.00  0.00    -0.331 N 
ATOM     13  C   UNL     1      51.516  54.363  22.640  1.00  0.00    +0.200 A 
ATOM     14  C   UNL     1      52.059  54.736  20.535  1.00  0.00    +0.121 A 
ATOM     15  N   UNL     1      51.695  53.166  22.127  1.00  0.00    -0.232 NA
ATOM     16  C   UNL     1      52.043  53.381  20.800  1.00  0.00    +0.146 A 
BRANCH  16  17
ATOM     17  C   UNL     1      52.334  52.298  19.861  1.00  0.00    +0.271 C 
ATOM     18  O   UNL     1      52.400  52.460  18.646  1.00  0.00    -0.267 OA
ATOM     19  N   UNL     1      52.507  51.087  20.492  1.00  0.00    -0.354 N 
ATOM     20  C   UNL     1      52.665  49.857  19.771  1.00  0.00    +0.143 C 
ATOM     21  H   UNL     1      52.319  51.087  21.491  1.00  0.00    +0.163 HD
ENDBRANCH  16  17
ENDBRANCH   7  12
ENDBRANCH   6   7
ENDBRANCH   1   6
TORSDOF 9
ENDMDL
MODEL 2
REMARK VINA RESULT:    -6.671      3.612      7.276
REMARK INTER + INTRA:         -10.677
REMARK INTER:                  -9.956
REMARK INTRA:                  -0.722
REMARK UNBOUND:                -0.691
REMARK SMILES CCCCCCC(C(C)O)n1cnc(C(=O)NC)c1
REMARK SMILES IDX 5 1 4 2 3 3 2 4 1 5 6 6 7 7 8 8 9 9 10 10 11 12 12 13 19 14
REMARK SMILES IDX 13 15 14 16 15 17 16 18 17 19 18 20
REMARK H PARENT 10 11 17 21
ROOT
ATOM      1  C   UNL     1      49.426  49.737  17.371  1.00  0.00    +0.002 C 
ENDROOT
BRANCH   1   2
ATOM      2  C   UNL     1      48.178  48.848  17.351  1.00  0.00    +0.000 C 
BRANCH   2   3
ATOM      3  C   UNL     1      47.536  48.566  18.715  1.00  0.00    -0.000 C 
BRANCH   3   4
ATOM      4  C   UNL     1      46.085  48.082  18.676  1.00  0.00    -0.003 C 
ATOM      5  C   UNL     1      45.239  48.785  17.625  1.00  0.00    +0.004 C 
ENDBRANCH   3   4
ENDBRANCH   2   3
ENDBRANCH   1   2
BRANCH   1   6
ATOM      6  C   UNL     1      49.694  50.378  18.740  1.00  0.00    +0.028 C 
BRANCH   6   7
ATOM      7  C   UNL     1      51.202  50.479  19.065  1.00  0.00    +0.116 C 
BRANCH   7   8
ATOM      8  C   UNL     1      51.639  49.592  20.258  1.00  0.00    +0.134 C 
ATOM      9  C   UNL     1      50.553  48.686  20.824  1.00  0.00    +0.040 C 
BRANCH   8  10
ATOM     10  O   UNL     1      52.722  48.743  19.855  1.00  0.00    -0.391 OA
ATOM     11  H   UNL     1      52.414  47.821  19.911  1.00  0.00    +0.211 HD
ENDBRANCH   8  10
ENDBRANCH   7   8
BRANCH   7  12
ATOM     12  N   UNL     1      51.684  51.848  19.217  1.00  0.00    -0.331 N 
ATOM     13  C   UNL     1      52.544  52.523  18.397  1.00  0.00    +0.200 A 
ATOM     14  C   UNL     1      51.337  52.695  20.234  1.00  0.00    +0.121 A 
ATOM     15  N   UNL     1      52.761  53.747  18.821  1.00  0.00    -0.232 NA
ATOM     16  C   UNL     1      52.011  53.873  19.983  1.00  0.00    +0.146 A 
BRANCH  16  17
ATOM     17  C   UNL     1      51.970  55.098  20.783  1.00  0.00    +0.271 C 
ATOM     18  O   UNL     1      52.106  55.110  22.003  1.00  0.00    -0.267 OA
ATOM     19  N   UNL     1      51.747  56.219  20.017  1.00  0.00    -0.354 N 
ATOM     20  C   UNL     1      51.529  57.515  20.591  1.00  0.00    +0.143 C 
ATOM     21  H   UNL     1      51.549  56.042  19.035  1.00  0.00    +0.163 HD
ENDBRANCH  16  17
ENDBRANCH   7  12
ENDBRANCH   6   7
ENDBRANCH   1   6
TORSDOF 9
ENDMDL
MODEL 3
REMARK VINA RESULT:    -6.671      1.343      1.741
REMARK INTER + INTRA:         -10.676
REMARK INTER:                  -9.848
REMARK INTRA:                  -0.829
REMARK UNBOUND:                -0.691
REMARK SMILES CCCCCCC(C(C)O)n1cnc(C(=O)NC)c1
REMARK SMILES IDX 5 1 4 2 3 3 2 4 1 5 6 6 7 7 8 8 9 9 10 10 11 12 12 13 19 14
REMARK SMILES IDX 13 15 14 16 15 17 16 18 17 19 18 20
REMARK H PARENT 10 11 17 21
ROOT
ATOM      1  C   UNL     1      49.401  57.456  21.821  1.00  0.00    +0.002 C 
ENDROOT
BRANCH   1   2
ATOM      2  C   UNL     1      48.171  57.962  21.061  1.00  0.00    +0.000 C 
BRANCH   2   3
ATOM      3  C   UNL     1      47.664  57.056  19.933  1.00  0.00    -0.000 C 
BRANCH   3   4
ATOM      4  C   UNL     1      48.166  55.611  19.969  1.00  0.00    -0.003 C 
ATOM      5  C   UNL     1      48.924  55.201  18.716  1.00  0.00    +0.004 C 
ENDBRANCH   3   4
ENDBRANCH   2   3
ENDBRANCH   1   2
BRANCH   1   6
ATOM      6  C   UNL     1      50.714  57.644  21.049  1.00  0.00    +0.028 C 
BRANCH   6   7
ATOM      7  C   UNL     1      51.870  56.792  21.623  1.00  0.00    +0.116 C 
BRANCH   7   8
ATOM      8  C   UNL     1      53.221  57.548  21.693  1.00  0.00    +0.134 C 
ATOM      9  C   UNL     1      53.115  59.068  21.680  1.00  0.00    +0.040 C 
BRANCH   8  10
ATOM     10  O   UNL     1      53.911  57.189  22.897  1.00  0.00    -0.391 OA
ATOM     11  H   UNL     1      53.856  56.222  22.996  1.00  0.00    +0.211 HD
ENDBRANCH   8  10
ENDBRANCH   7   8
BRANCH   7  12
ATOM     12  N   UNL     1      52.022  55.491  20.979  1.00  0.00    -0.331 N 
ATOM     13  C   UNL     1      52.453  55.239  19.707  1.00  0.00    +0.200 A 
ATOM     14  C   UNL     1      51.752  54.286  21.568  1.00  0.00    +0.121 A 
ATOM     15  N   UNL     1      52.482  53.951  19.450  1.00  0.00    -0.232 NA
ATOM     16  C   UNL     1      52.038  53.332  20.611  1.00  0.00    +0.146 A 
BRANCH  16  17
ATOM     17  C   UNL     1      51.917  51.881  20.752  1.00  0.00    +0.271 C 
ATOM     18  O   UNL     1      51.286  51.343  21.657  1.00  0.00    -0.267 OA
ATOM     19  N   UNL     1      52.598  51.199  19.770  1.00  0.00    -0.354 N 
ATOM     20  C   UNL     1      52.740  49.771  19.779  1.00  0.00    +0.143 C 
ATOM     21  H   UNL     1      53.161  51.776  19.150  1.00  0.00    +0.163 HD
ENDBRANCH  16  17
ENDBRANCH   7  12
ENDBRANCH   6   7
ENDBRANCH   1   6
TORSDOF 9
ENDMDL
MODEL 4
REMARK VINA RESULT:    -6.503      2.406      2.650
REMARK INTER + INTRA:         -10.426
REMARK INTER:                  -9.591
REMARK INTRA:                  -0.834
REMARK UNBOUND:                -0.691
REMARK SMILES CCCCCCC(C(C)O)n1cnc(C(=O)NC)c1
REMARK SMILES IDX 5 1 4 2 3 3 2 4 1 5 6 6 7 7 8 8 9 9 10 10 11 12 12 13 19 14
REMARK SMILES IDX 13 15 14 16 15 17 16 18 17 19 18 20
REMARK H PARENT 10 11 17 21
ROOT
ATOM      1  C   UNL     1      48.922  57.797  21.464  1.00  0.00    +0.002 C 
ENDROOT
BRANCH   1   2
ATOM      2  C   UNL     1      47.619  57.835  20.658  1.00  0.00    +0.000 C 
BRANCH   2   3
ATOM      3  C   UNL     1      47.776  57.798  19.134  1.00  0.00    -0.000 C 
BRANCH   3   4
ATOM      4  C   UNL     1      47.469  59.108  18.405  1.00  0.00    -0.003 C 
ATOM      5  C   UNL     1      46.933  60.199  19.319  1.00  0.00    +0.004 C 
ENDBRANCH   3   4
ENDBRANCH   2   3
ENDBRANCH   1   2
BRANCH   1   6
ATOM      6  C   UNL     1      50.171  57.611  20.593  1.00  0.00    +0.028 C 
BRANCH   6   7
ATOM      7  C   UNL     1      51.053  56.430  21.060  1.00  0.00    +0.116 C 
BRANCH   7   8
ATOM      8  C   UNL     1      52.457  56.862  21.554  1.00  0.00    +0.134 C 
ATOM      9  C   UNL     1      52.688  58.367  21.612  1.00  0.00    +0.040 C 
BRANCH   8  10
ATOM     10  O   UNL     1      52.679  56.355  22.876  1.00  0.00    -0.391 OA
ATOM     11  H   UNL     1      51.815  56.296  23.322  1.00  0.00    +0.211 HD
ENDBRANCH   8  10
ENDBRANCH   7   8
BRANCH   7  12
ATOM     12  N   UNL     1      51.143  55.340  20.093  1.00  0.00    -0.331 N 
ATOM     13  C   UNL     1      52.271  54.837  19.511  1.00  0.00    +0.200 A 
ATOM     14  C   UNL     1      50.078  54.631  19.608  1.00  0.00    +0.121 A 
ATOM     15  N   UNL     1      51.996  53.847  18.691  1.00  0.00    -0.232 NA
ATOM     16  C   UNL     1      50.615  53.705  18.735  1.00  0.00    +0.146 A 
BRANCH  16  17
ATOM     17  C   UNL     1      49.886  52.702  17.959  1.00  0.00    +0.271 C 
ATOM     18  O   UNL     1      50.236  51.529  17.876  1.00  0.00    -0.267 OA
ATOM     19  N   UNL     1      48.783  53.228  17.326  1.00  0.00    -0.354 N 
ATOM     20  C   UNL     1      47.991  52.472  16.399  1.00  0.00    +0.143 C 
ATOM     21  H   UNL     1      48.677  54.237  17.401  1.00  0.00    +0.163 HD
ENDBRANCH  16  17
ENDBRANCH   7  12
ENDBRANCH   6   7
ENDBRANCH   1   6
TORSDOF 9
ENDMDL
MODEL 5
REMARK VINA RESULT:    -6.454      3.003      6.578
REMARK INTER + INTRA:         -10.352
REMARK INTER:                  -9.867
REMARK INTRA:                  -0.485
REMARK UNBOUND:                -0.691
REMARK SMILES CCCCCCC(C(C)O)n1cnc(C(=O)NC)c1
REMARK SMILES IDX 5 1 4 2 3 3 2 4 1 5 6 6 7 7 8 8 9 9 10 10 11 12 12 13 19 14
REMARK SMILES IDX 13 15 14 16 15 17 16 18 17 19 18 20
REMARK H PARENT 10 11 17 21
ROOT
ATOM      1  C   UNL     1      50.465  50.881  18.036  1.00  0.00    +0.002 C 
ENDROOT
BRANCH   1   2
ATOM      2  C   UNL     1      49.155  50.235  17.575  1.00  0.00    +0.000 C 
BRANCH   2   3
ATOM      3  C   UNL     1      48.566  49.176  18.514  1.00  0.00    -0.000 C 
BRANCH   3   4
ATOM      4  C   UNL     1      47.142  48.721  18.187  1.00  0.00    -0.003 C 
ATOM      5  C   UNL     1      46.371  49.710  17.326  1.00  0.00    +0.004 C 
ENDBRANCH   3   4
ENDBRANCH   2   3
ENDBRANCH   1   2
BRANCH   1   6
ATOM      6  C   UNL     1      50.305  51.753  19.289  1.00  0.00    +0.028 C 
BRANCH   6   7
ATOM      7  C   UNL     1      51.635  51.945  20.055  1.00  0.00    +0.116 C 
BRANCH   7   8
ATOM      8  C   UNL     1      51.998  50.752  20.975  1.00  0.00    +0.134 C 
ATOM      9  C   UNL     1      50.907  49.699  21.130  1.00  0.00    +0.040 C 
BRANCH   8  10
ATOM     10  O   UNL     1      53.154  50.080  20.458  1.00  0.00    -0.391 OA
ATOM     11  H   UNL     1      53.682  50.733  19.965  1.00  0.00    +0.211 HD
ENDBRANCH   8  10
ENDBRANCH   7   8
BRANCH   7  12
ATOM     12  N   UNL     1      51.728  53.213  20.771  1.00  0.00    -0.331 N 
ATOM     13  C   UNL     1      51.649  53.415  22.120  1.00  0.00    +0.200 A 
ATOM     14  C   UNL     1      51.918  54.435  20.183  1.00  0.00    +0.121 A 
ATOM     15  N   UNL     1      51.783  54.684  22.431  1.00  0.00    -0.232 NA
ATOM     16  C   UNL     1      51.950  55.345  21.221  1.00  0.00    +0.146 A 
BRANCH  16  17
ATOM     17  C   UNL     1      52.134  56.793  21.115  1.00  0.00    +0.271 C 
ATOM     18  O   UNL     1      51.593  57.480  20.255  1.00  0.00    -0.267 OA
ATOM     19  N   UNL     1      52.990  57.285  22.075  1.00  0.00    -0.354 N 
ATOM     20  C   UNL     1      53.432  58.649  22.088  1.00  0.00    +0.143 C 
ATOM     21  H   UNL     1      53.444  56.583  22.654  1.00  0.00    +0.163 HD
ENDBRANCH  16  17
ENDBRANCH   7  12
ENDBRANCH   6   7
ENDBRANCH   1   6
TORSDOF 9
ENDMDL
