MODEL 1
REMARK VINA RESULT:    -8.893      0.000      0.000
REMARK INTER + INTRA:         -18.242
REMARK INTER:                 -15.912
REMARK INTRA:                  -2.330
REMARK UNBOUND:                -2.330
REMARK SMILES NC(=O)c1cn([C@@H](CO)CCn2ccc3ccc(NC(=O)CCCCCc4ccccc4)cc32)cn1
REMARK SMILES IDX 12 1 13 2 14 3 15 4 16 5 17 6 18 7 33 8 34 9 11 10 10 11
REMARK SMILES IDX 7 12 6 13 4 14 5 15 36 16 35 17 2 18 1 19 3 20 8 23 9 24
REMARK SMILES IDX 19 26 20 27 21 28 22 30 23 31 24 32 25 33 26 34 27 35 28 36
REMARK SMILES IDX 32 37 29 38 31 39 30 40
REMARK H PARENT 1 21 1 22 9 25 19 29
ROOT
ATOM      1  N   UNL     1      48.778  57.139  19.834  1.00  0.00    -0.347 N 
ATOM      2  C   UNL     1      48.320  58.427  19.713  1.00  0.00    +0.087 A 
ATOM      3  C   UNL     1      47.805  58.575  18.446  1.00  0.00    +0.028 A 
ATOM      4  C   UNL     1      47.941  57.330  17.775  1.00  0.00    -0.000 A 
ATOM      5  C   UNL     1      47.591  56.871  16.493  1.00  0.00    +0.012 A 
ATOM      6  C   UNL     1      47.864  55.542  16.138  1.00  0.00    +0.027 A 
ATOM      7  C   UNL     1      48.488  54.666  17.030  1.00  0.00    +0.043 A 
ATOM      8  C   UNL     1      48.841  55.111  18.309  1.00  0.00    +0.053 A 
ATOM      9  C   UNL     1      48.556  56.444  18.662  1.00  0.00    +0.050 A 
ENDROOT
BRANCH   1  10
ATOM     10  C   UNL     1      49.378  56.594  21.038  1.00  0.00    +0.124 C 
BRANCH  10  11
ATOM     11  C   UNL     1      50.325  57.555  21.767  1.00  0.00    +0.050 C 
BRANCH  11  12
ATOM     12  C   UNL     1      51.688  56.921  22.117  1.00  0.00    +0.115 C 
BRANCH  12  13
ATOM     13  N   UNL     1      51.728  55.522  21.676  1.00  0.00    -0.331 N 
ATOM     14  C   UNL     1      51.976  53.722  20.456  1.00  0.00    +0.145 A 
ATOM     15  C   UNL     1      52.006  55.101  20.404  1.00  0.00    +0.121 A 
ATOM     16  N   UNL     1      51.695  53.306  21.751  1.00  0.00    -0.232 NA
ATOM     17  C   UNL     1      51.552  54.409  22.451  1.00  0.00    +0.200 A 
BRANCH  14  18
ATOM     18  C   UNL     1      52.200  52.799  19.349  1.00  0.00    +0.268 C 
ATOM     19  N   UNL     1      52.688  51.586  19.745  1.00  0.00    -0.364 N 
ATOM     20  O   UNL     1      51.978  53.058  18.171  1.00  0.00    -0.268 OA
ATOM     21  H   UNL     1      52.774  51.398  20.736  1.00  0.00    +0.160 HD
ATOM     22  H   UNL     1      52.795  50.852  19.065  1.00  0.00    +0.160 HD
ENDBRANCH  14  18
ENDBRANCH  12  13
BRANCH  12  23
ATOM     23  C   UNL     1      52.872  57.728  21.550  1.00  0.00    +0.181 C 
BRANCH  23  24
ATOM     24  O   UNL     1      53.343  58.682  22.498  1.00  0.00    -0.394 OA
ATOM     25  H   UNL     1      53.570  58.207  23.317  1.00  0.00    +0.210 HD
ENDBRANCH  23  24
ENDBRANCH  12  23
ENDBRANCH  11  12
ENDBRANCH  10  11
ENDBRANCH   1  10
BRANCH   7  26
ATOM     26  N   UNL     1      48.718  53.348  16.575  1.00  0.00    -0.326 N 
ATOM     27  C   UNL     1      47.873  52.259  16.688  1.00  0.00    +0.224 C 
ATOM     28  O   UNL     1      46.767  52.249  17.219  1.00  0.00    -0.275 OA
ATOM     29  H   UNL     1      49.628  53.182  16.164  1.00  0.00    +0.169 HD
BRANCH  27  30
ATOM     30  C   UNL     1      48.445  51.008  16.034  1.00  0.00    +0.100 C 
BRANCH  30  31
ATOM     31  C   UNL     1      49.712  50.514  16.729  1.00  0.00    +0.010 C 
BRANCH  31  32
ATOM     32  C   UNL     1      49.600  50.354  18.253  1.00  0.00    +0.001 C 
BRANCH  32  33
ATOM     33  C   UNL     1      49.342  48.916  18.722  1.00  0.00    +0.005 C 
BRANCH  33  34
ATOM     34  C   UNL     1      47.882  48.668  19.116  1.00  0.00    +0.035 C 
BRANCH  34  35
ATOM     35  C   UNL     1      47.021  48.362  17.915  1.00  0.00    -0.048 A 
ATOM     36  C   UNL     1      47.480  47.501  16.910  1.00  0.00    +0.004 A 
ATOM     37  C   UNL     1      45.739  48.919  17.800  1.00  0.00    +0.004 A 
ATOM     38  C   UNL     1      46.677  47.211  15.805  1.00  0.00    +0.000 A 
ATOM     39  C   UNL     1      44.937  48.627  16.695  1.00  0.00    +0.000 A 
ATOM     40  C   UNL     1      45.406  47.776  15.697  1.00  0.00    +0.000 A 
ENDBRANCH  34  35
ENDBRANCH  33  34
ENDBRANCH  32  33
ENDBRANCH  31  32
ENDBRANCH  30  31
ENDBRANCH  27  30
ENDBRANCH   7  26
TORSDOF 14
ENDMDL
MODEL 2
REMARK VINA RESULT:    -8.813      3.285      9.963
REMARK INTER + INTRA:         -18.098
REMARK INTER:                 -17.014
REMARK INTRA:                  -1.084
REMARK UNBOUND:                -2.330
REMARK SMILES NC(=O)c1cn([C@@H](CO)CCn2ccc3ccc(NC(=O)CCCCCc4ccccc4)cc32)cn1
REMARK SMILES IDX 12 1 13 2 14 3 15 4 16 5 17 6 18 7 33 8 34 9 11 10 10 11
REMARK SMILES IDX 7 12 6 13 4 14 5 15 36 16 35 17 2 18 1 19 3 20 8 23 9 24
REMARK SMILES IDX 19 26 20 27 21 28 22 30 23 31 24 32 25 33 26 34 27 35 28 36
REMARK SMILES IDX 32 37 29 38 31 39 30 40
REMARK H PARENT 1 21 1 22 9 25 19 29
ROOT
ATOM      1  N   UNL     1      50.065  51.049  18.707  1.00  0.00    -0.347 N 
ATOM      2  C   UNL     1      50.501  49.770  18.942  1.00  0.00    +0.087 A 
ATOM      3  C   UNL     1      51.239  49.782  20.102  1.00  0.00    +0.028 A 
ATOM      4  C   UNL     1      51.242  51.112  20.600  1.00  0.00    -0.000 A 
ATOM      5  C   UNL     1      51.802  51.726  21.734  1.00  0.00    +0.012 A 
ATOM      6  C   UNL     1      51.605  53.099  21.943  1.00  0.00    +0.027 A 
ATOM      7  C   UNL     1      50.871  53.873  21.040  1.00  0.00    +0.043 A 
ATOM      8  C   UNL     1      50.308  53.272  19.908  1.00  0.00    +0.053 A 
ATOM      9  C   UNL     1      50.502  51.892  19.709  1.00  0.00    +0.050 A 
ENDROOT
BRANCH   1  10
ATOM     10  C   UNL     1      49.238  51.438  17.578  1.00  0.00    +0.124 C 
BRANCH  10  11
ATOM     11  C   UNL     1      48.146  50.425  17.213  1.00  0.00    +0.050 C 
BRANCH  11  12
ATOM     12  C   UNL     1      48.583  49.423  16.123  1.00  0.00    +0.115 C 
BRANCH  12  13
ATOM     13  N   UNL     1      47.413  48.739  15.561  1.00  0.00    -0.331 N 
ATOM     14  C   UNL     1      45.473  47.748  15.351  1.00  0.00    +0.145 A 
ATOM     15  C   UNL     1      46.347  48.273  16.281  1.00  0.00    +0.121 A 
ATOM     16  N   UNL     1      45.996  47.904  14.074  1.00  0.00    -0.232 NA
ATOM     17  C   UNL     1      47.156  48.499  14.240  1.00  0.00    +0.200 A 
BRANCH  14  18
ATOM     18  C   UNL     1      44.186  47.116  15.618  1.00  0.00    +0.268 C 
ATOM     19  N   UNL     1      44.228  46.211  16.641  1.00  0.00    -0.364 N 
ATOM     20  O   UNL     1      43.151  47.356  15.005  1.00  0.00    -0.268 OA
ATOM     21  H   UNL     1      45.089  46.113  17.167  1.00  0.00    +0.160 HD
ATOM     22  H   UNL     1      43.373  45.786  16.959  1.00  0.00    +0.160 HD
ENDBRANCH  14  18
ENDBRANCH  12  13
BRANCH  12  23
ATOM     23  C   UNL     1      49.433  50.088  15.023  1.00  0.00    +0.181 C 
BRANCH  23  24
ATOM     24  O   UNL     1      50.624  49.346  14.776  1.00  0.00    -0.394 OA
ATOM     25  H   UNL     1      51.382  49.894  15.046  1.00  0.00    +0.210 HD
ENDBRANCH  23  24
ENDBRANCH  12  23
ENDBRANCH  11  12
ENDBRANCH  10  11
ENDBRANCH   1  10
BRANCH   7  26
ATOM     26  N   UNL     1      50.730  55.245  21.342  1.00  0.00    -0.326 N 
ATOM     27  C   UNL     1      51.479  56.298  20.848  1.00  0.00    +0.224 C 
ATOM     28  O   UNL     1      52.415  56.217  20.059  1.00  0.00    -0.275 OA
ATOM     29  H   UNL     1      50.028  55.468  22.037  1.00  0.00    +0.169 HD
BRANCH  27  30
ATOM     30  C   UNL     1      51.001  57.648  21.368  1.00  0.00    +0.100 C 
BRANCH  30  31
ATOM     31  C   UNL     1      49.512  57.649  21.707  1.00  0.00    +0.010 C 
BRANCH  31  32
ATOM     32  C   UNL     1      48.568  57.559  20.498  1.00  0.00    +0.001 C 
BRANCH  32  33
ATOM     33  C   UNL     1      47.450  58.611  20.488  1.00  0.00    +0.005 C 
BRANCH  33  34
ATOM     34  C   UNL     1      47.365  59.380  19.164  1.00  0.00    +0.035 C 
BRANCH  34  35
ATOM     35  C   UNL     1      46.506  60.614  19.287  1.00  0.00    -0.048 A 
ATOM     36  C   UNL     1      45.129  60.553  19.035  1.00  0.00    +0.004 A 
ATOM     37  C   UNL     1      47.071  61.837  19.677  1.00  0.00    +0.004 A 
ATOM     38  C   UNL     1      44.335  61.695  19.161  1.00  0.00    +0.000 A 
ATOM     39  C   UNL     1      46.276  62.977  19.803  1.00  0.00    +0.000 A 
ATOM     40  C   UNL     1      44.909  62.906  19.543  1.00  0.00    +0.000 A 
ENDBRANCH  34  35
ENDBRANCH  33  34
ENDBRANCH  32  33
ENDBRANCH  31  32
ENDBRANCH  30  31
ENDBRANCH  27  30
ENDBRANCH   7  26
TORSDOF 14
ENDMDL
MODEL 3
REMARK VINA RESULT:    -8.794      1.386      2.248
REMARK INTER + INTRA:         -18.065
REMARK INTER:                 -16.052
REMARK INTRA:                  -2.012
REMARK UNBOUND:                -2.330
REMARK SMILES NC(=O)c1cn([C@@H](CO)CCn2ccc3ccc(NC(=O)CCCCCc4ccccc4)cc32)cn1
REMARK SMILES IDX 12 1 13 2 14 3 15 4 16 5 17 6 18 7 33 8 34 9 11 10 10 11
REMARK SMILES IDX 7 12 6 13 4 14 5 15 36 16 35 17 2 18 1 19 3 20 8 23 9 24
REMARK SMILES IDX 19 26 20 27 21 28 22 30 23 31 24 32 25 33 26 34 27 35 28 36
REMARK SMILES IDX 32 37 29 38 31 39 30 40
REMARK H PARENT 1 21 1 22 9 25 19 29
ROOT
ATOM      1  N   UNL     1      48.808  56.775  19.572  1.00  0.00    -0.347 N 
ATOM      2  C   UNL     1      48.466  57.934  18.922  1.00  0.00    +0.087 A 
ATOM      3  C   UNL     1      48.083  57.604  17.643  1.00  0.00    +0.028 A 
ATOM      4  C   UNL     1      48.181  56.193  17.513  1.00  0.00    -0.000 A 
ATOM      5  C   UNL     1      47.915  55.291  16.467  1.00  0.00    +0.012 A 
ATOM      6  C   UNL     1      48.112  53.918  16.674  1.00  0.00    +0.027 A 
ATOM      7  C   UNL     1      48.581  53.428  17.896  1.00  0.00    +0.043 A 
ATOM      8  C   UNL     1      48.849  54.316  18.944  1.00  0.00    +0.053 A 
ATOM      9  C   UNL     1      48.639  55.692  18.733  1.00  0.00    +0.050 A 
ENDROOT
BRANCH   1  10
ATOM     10  C   UNL     1      49.250  56.712  20.954  1.00  0.00    +0.124 C 
BRANCH  10  11
ATOM     11  C   UNL     1      50.347  57.719  21.316  1.00  0.00    +0.050 C 
BRANCH  11  12
ATOM     12  C   UNL     1      51.586  57.066  21.966  1.00  0.00    +0.115 C 
BRANCH  12  13
ATOM     13  N   UNL     1      51.812  55.730  21.402  1.00  0.00    -0.331 N 
ATOM     14  C   UNL     1      51.895  53.559  21.139  1.00  0.00    +0.145 A 
ATOM     15  C   UNL     1      51.592  54.548  22.053  1.00  0.00    +0.121 A 
ATOM     16  N   UNL     1      52.283  54.134  19.936  1.00  0.00    -0.232 NA
ATOM     17  C   UNL     1      52.222  55.432  20.132  1.00  0.00    +0.200 A 
BRANCH  14  18
ATOM     18  C   UNL     1      51.831  52.117  21.355  1.00  0.00    +0.268 C 
ATOM     19  N   UNL     1      50.837  51.742  22.213  1.00  0.00    -0.364 N 
ATOM     20  O   UNL     1      52.579  51.301  20.828  1.00  0.00    -0.268 OA
ATOM     21  H   UNL     1      50.197  52.450  22.553  1.00  0.00    +0.160 HD
ATOM     22  H   UNL     1      50.656  50.763  22.360  1.00  0.00    +0.160 HD
ENDBRANCH  14  18
ENDBRANCH  12  13
BRANCH  12  23
ATOM     23  C   UNL     1      52.842  57.950  21.850  1.00  0.00    +0.181 C 
BRANCH  23  24
ATOM     24  O   UNL     1      53.918  57.417  22.617  1.00  0.00    -0.394 OA
ATOM     25  H   UNL     1      53.697  56.497  22.848  1.00  0.00    +0.210 HD
ENDBRANCH  23  24
ENDBRANCH  12  23
ENDBRANCH  11  12
ENDBRANCH  10  11
ENDBRANCH   1  10
BRANCH   7  26
ATOM     26  N   UNL     1      48.746  52.029  18.002  1.00  0.00    -0.326 N 
ATOM     27  C   UNL     1      49.935  51.321  18.020  1.00  0.00    +0.224 C 
ATOM     28  O   UNL     1      51.064  51.792  17.934  1.00  0.00    -0.275 OA
ATOM     29  H   UNL     1      47.890  51.489  18.020  1.00  0.00    +0.169 HD
BRANCH  27  30
ATOM     30  C   UNL     1      49.717  49.823  18.195  1.00  0.00    +0.100 C 
BRANCH  30  31
ATOM     31  C   UNL     1      48.354  49.367  17.679  1.00  0.00    +0.010 C 
BRANCH  31  32
ATOM     32  C   UNL     1      47.428  48.749  18.738  1.00  0.00    +0.001 C 
BRANCH  32  33
ATOM     33  C   UNL     1      46.102  48.210  18.184  1.00  0.00    +0.005 C 
BRANCH  33  34
ATOM     34  C   UNL     1      46.292  47.055  17.193  1.00  0.00    +0.035 C 
BRANCH  34  35
ATOM     35  C   UNL     1      45.718  47.380  15.836  1.00  0.00    -0.048 A 
ATOM     36  C   UNL     1      44.354  47.193  15.576  1.00  0.00    +0.004 A 
ATOM     37  C   UNL     1      46.539  47.896  14.823  1.00  0.00    +0.004 A 
ATOM     38  C   UNL     1      43.824  47.504  14.323  1.00  0.00    +0.000 A 
ATOM     39  C   UNL     1      46.006  48.208  13.571  1.00  0.00    +0.000 A 
ATOM     40  C   UNL     1      44.650  48.010  13.320  1.00  0.00    +0.000 A 
ENDBRANCH  34  35
ENDBRANCH  33  34
ENDBRANCH  32  33
ENDBRANCH  31  32
ENDBRANCH  30  31
ENDBRANCH  27  30
ENDBRANCH   7  26
TORSDOF 14
ENDMDL
MODEL 4
REMARK VINA RESULT:    -8.368      2.476      8.452
REMARK INTER + INTRA:         -17.302
REMARK INTER:                 -15.438
REMARK INTRA:                  -1.863
REMARK UNBOUND:                -2.330
REMARK SMILES NC(=O)c1cn([C@@H](CO)CCn2ccc3ccc(NC(=O)CCCCCc4ccccc4)cc32)cn1
REMARK SMILES IDX 12 1 13 2 14 3 15 4 16 5 17 6 18 7 33 8 34 9 11 10 10 11
REMARK SMILES IDX 7 12 6 13 4 14 5 15 36 16 35 17 2 18 1 19 3 20 8 23 9 24
REMARK SMILES IDX 19 26 20 27 21 28 22 30 23 31 24 32 25 33 26 34 27 35 28 36
REMARK SMILES IDX 32 37 29 38 31 39 30 40
REMARK H PARENT 1 21 1 22 9 25 19 29
ROOT
ATOM      1  N   UNL     1      51.054  51.202  18.715  1.00  0.00    -0.347 N 
ATOM      2  C   UNL     1      51.475  49.982  19.178  1.00  0.00    +0.087 A 
ATOM      3  C   UNL     1      51.797  50.122  20.507  1.00  0.00    +0.028 A 
ATOM      4  C   UNL     1      51.549  51.473  20.872  1.00  0.00    -0.000 A 
ATOM      5  C   UNL     1      51.671  52.195  22.073  1.00  0.00    +0.012 A 
ATOM      6  C   UNL     1      51.325  53.553  22.097  1.00  0.00    +0.027 A 
ATOM      7  C   UNL     1      50.871  54.209  20.949  1.00  0.00    +0.043 A 
ATOM      8  C   UNL     1      50.745  53.500  19.749  1.00  0.00    +0.053 A 
ATOM      9  C   UNL     1      51.086  52.134  19.733  1.00  0.00    +0.050 A 
ENDROOT
BRANCH   1  10
ATOM     10  C   UNL     1      50.611  51.453  17.355  1.00  0.00    +0.124 C 
BRANCH  10  11
ATOM     11  C   UNL     1      49.744  50.341  16.754  1.00  0.00    +0.050 C 
BRANCH  11  12
ATOM     12  C   UNL     1      48.252  50.721  16.645  1.00  0.00    +0.115 C 
BRANCH  12  13
ATOM     13  N   UNL     1      47.423  49.734  17.346  1.00  0.00    -0.331 N 
ATOM     14  C   UNL     1      45.815  48.338  17.855  1.00  0.00    +0.145 A 
ATOM     15  C   UNL     1      46.208  49.273  16.918  1.00  0.00    +0.121 A 
ATOM     16  N   UNL     1      46.789  48.221  18.838  1.00  0.00    -0.232 NA
ATOM     17  C   UNL     1      47.733  49.070  18.501  1.00  0.00    +0.200 A 
BRANCH  14  18
ATOM     18  C   UNL     1      44.578  47.565  17.855  1.00  0.00    +0.268 C 
ATOM     19  N   UNL     1      44.281  47.020  19.072  1.00  0.00    -0.364 N 
ATOM     20  O   UNL     1      43.855  47.408  16.877  1.00  0.00    -0.268 OA
ATOM     21  H   UNL     1      44.868  47.251  19.864  1.00  0.00    +0.160 HD
ATOM     22  H   UNL     1      43.404  46.541  19.196  1.00  0.00    +0.160 HD
ENDBRANCH  14  18
ENDBRANCH  12  13
BRANCH  12  23
ATOM     23  C   UNL     1      47.975  52.152  17.144  1.00  0.00    +0.181 C 
BRANCH  23  24
ATOM     24  O   UNL     1      47.552  52.995  16.076  1.00  0.00    -0.394 OA
ATOM     25  H   UNL     1      47.061  52.449  15.437  1.00  0.00    +0.210 HD
ENDBRANCH  23  24
ENDBRANCH  12  23
ENDBRANCH  11  12
ENDBRANCH  10  11
ENDBRANCH   1  10
BRANCH   7  26
ATOM     26  N   UNL     1      50.548  55.577  21.080  1.00  0.00    -0.326 N 
ATOM     27  C   UNL     1      51.419  56.632  21.284  1.00  0.00    +0.224 C 
ATOM     28  O   UNL     1      52.638  56.558  21.398  1.00  0.00    -0.275 OA
ATOM     29  H   UNL     1      49.559  55.794  21.068  1.00  0.00    +0.169 HD
BRANCH  27  30
ATOM     30  C   UNL     1      50.704  57.978  21.326  1.00  0.00    +0.100 C 
BRANCH  30  31
ATOM     31  C   UNL     1      49.314  57.880  21.951  1.00  0.00    +0.010 C 
BRANCH  31  32
ATOM     32  C   UNL     1      48.156  58.300  21.033  1.00  0.00    +0.001 C 
BRANCH  32  33
ATOM     33  C   UNL     1      48.299  57.832  19.578  1.00  0.00    +0.005 C 
BRANCH  33  34
ATOM     34  C   UNL     1      47.722  58.832  18.569  1.00  0.00    +0.035 C 
BRANCH  34  35
ATOM     35  C   UNL     1      47.366  58.167  17.261  1.00  0.00    -0.048 A 
ATOM     36  C   UNL     1      48.059  57.028  16.830  1.00  0.00    +0.004 A 
ATOM     37  C   UNL     1      46.321  58.667  16.471  1.00  0.00    +0.004 A 
ATOM     38  C   UNL     1      47.720  56.409  15.625  1.00  0.00    +0.000 A 
ATOM     39  C   UNL     1      45.983  58.046  15.268  1.00  0.00    +0.000 A 
ATOM     40  C   UNL     1      46.684  56.919  14.844  1.00  0.00    +0.000 A 
ENDBRANCH  34  35
ENDBRANCH  33  34
ENDBRANCH  32  33
ENDBRANCH  31  32
ENDBRANCH  30  31
ENDBRANCH  27  30
ENDBRANCH   7  26
TORSDOF 14
ENDMDL
MODEL 5
REMARK VINA RESULT:    -8.228      3.908     10.131
REMARK INTER + INTRA:         -17.051
REMARK INTER:                 -16.014
REMARK INTRA:                  -1.037
REMARK UNBOUND:                -2.330
REMARK SMILES NC(=O)c1cn([C@@H](CO)CCn2ccc3ccc(NC(=O)CCCCCc4ccccc4)cc32)cn1
REMARK SMILES IDX 12 1 13 2 14 3 15 4 16 5 17 6 18 7 33 8 34 9 11 10 10 11
REMARK SMILES IDX 7 12 6 13 4 14 5 15 36 16 35 17 2 18 1 19 3 20 8 23 9 24
REMARK SMILES IDX 19 26 20 27 21 28 22 30 23 31 24 32 25 33 26 34 27 35 28 36
REMARK SMILES IDX 32 37 29 38 31 39 30 40
REMARK H PARENT 1 21 1 22 9 25 19 29
ROOT
ATOM      1  N   UNL     1      50.906  52.663  18.531  1.00  0.00    -0.347 N 
ATOM      2  C   UNL     1      52.198  52.220  18.647  1.00  0.00    +0.087 A 
ATOM      3  C   UNL     1      52.970  53.274  19.078  1.00  0.00    +0.028 A 
ATOM      4  C   UNL     1      52.114  54.396  19.244  1.00  0.00    -0.000 A 
ATOM      5  C   UNL     1      52.318  55.722  19.668  1.00  0.00    +0.012 A 
ATOM      6  C   UNL     1      51.228  56.601  19.730  1.00  0.00    +0.027 A 
ATOM      7  C   UNL     1      49.942  56.190  19.368  1.00  0.00    +0.043 A 
ATOM      8  C   UNL     1      49.727  54.873  18.945  1.00  0.00    +0.053 A 
ATOM      9  C   UNL     1      50.825  53.993  18.894  1.00  0.00    +0.050 A 
ENDROOT
BRANCH   1  10
ATOM     10  C   UNL     1      49.789  51.832  18.116  1.00  0.00    +0.124 C 
BRANCH  10  11
ATOM     11  C   UNL     1      50.114  50.337  18.016  1.00  0.00    +0.050 C 
BRANCH  11  12
ATOM     12  C   UNL     1      49.366  49.479  19.059  1.00  0.00    +0.115 C 
BRANCH  12  13
ATOM     13  N   UNL     1      48.393  48.604  18.395  1.00  0.00    -0.331 N 
ATOM     14  C   UNL     1      46.534  47.603  17.820  1.00  0.00    +0.145 A 
ATOM     15  C   UNL     1      47.069  48.501  18.722  1.00  0.00    +0.121 A 
ATOM     16  N   UNL     1      47.521  47.174  16.942  1.00  0.00    -0.232 NA
ATOM     17  C   UNL     1      48.618  47.792  17.318  1.00  0.00    +0.200 A 
BRANCH  14  18
ATOM     18  C   UNL     1      45.150  47.146  17.756  1.00  0.00    +0.268 C 
ATOM     19  N   UNL     1      44.575  46.987  18.985  1.00  0.00    -0.364 N 
ATOM     20  O   UNL     1      44.538  46.923  16.717  1.00  0.00    -0.268 OA
ATOM     21  H   UNL     1      45.099  47.265  19.805  1.00  0.00    +0.160 HD
ATOM     22  H   UNL     1      43.597  46.758  19.045  1.00  0.00    +0.160 HD
ENDBRANCH  14  18
ENDBRANCH  12  13
BRANCH  12  23
ATOM     23  C   UNL     1      50.329  48.678  19.957  1.00  0.00    +0.181 C 
BRANCH  23  24
ATOM     24  O   UNL     1      50.677  49.417  21.124  1.00  0.00    -0.394 OA
ATOM     25  H   UNL     1      51.129  48.814  21.739  1.00  0.00    +0.210 HD
ENDBRANCH  23  24
ENDBRANCH  12  23
ENDBRANCH  11  12
ENDBRANCH  10  11
ENDBRANCH   1  10
BRANCH   7  26
ATOM     26  N   UNL     1      48.912  57.151  19.466  1.00  0.00    -0.326 N 
ATOM     27  C   UNL     1      48.480  57.809  20.604  1.00  0.00    +0.224 C 
ATOM     28  O   UNL     1      48.917  57.660  21.741  1.00  0.00    -0.275 OA
ATOM     29  H   UNL     1      48.407  57.339  18.609  1.00  0.00    +0.169 HD
BRANCH  27  30
ATOM     30  C   UNL     1      47.375  58.816  20.311  1.00  0.00    +0.100 C 
BRANCH  30  31
ATOM     31  C   UNL     1      47.557  59.506  18.961  1.00  0.00    +0.010 C 
BRANCH  31  32
ATOM     32  C   UNL     1      46.388  60.400  18.523  1.00  0.00    +0.001 C 
BRANCH  32  33
ATOM     33  C   UNL     1      46.031  61.511  19.520  1.00  0.00    +0.005 C 
BRANCH  33  34
ATOM     34  C   UNL     1      44.919  62.437  19.012  1.00  0.00    +0.035 C 
BRANCH  34  35
ATOM     35  C   UNL     1      45.475  63.627  18.270  1.00  0.00    -0.048 A 
ATOM     36  C   UNL     1      46.828  63.675  17.912  1.00  0.00    +0.004 A 
ATOM     37  C   UNL     1      44.638  64.692  17.907  1.00  0.00    +0.004 A 
ATOM     38  C   UNL     1      47.337  64.773  17.215  1.00  0.00    +0.000 A 
ATOM     39  C   UNL     1      45.148  65.789  17.210  1.00  0.00    +0.000 A 
ATOM     40  C   UNL     1      46.498  65.830  16.866  1.00  0.00    +0.000 A 
ENDBRANCH  34  35
ENDBRANCH  33  34
ENDBRANCH  32  33
ENDBRANCH  31  32
ENDBRANCH  30  31
ENDBRANCH  27  30
ENDBRANCH   7  26
TORSDOF 14
ENDMDL
