MODEL 1
REMARK VINA RESULT:    -9.268      0.000      0.000
REMARK INTER + INTRA:         -17.813
REMARK INTER:                 -16.040
REMARK INTRA:                  -1.773
REMARK UNBOUND:                -1.773
REMARK SMILES NC(=O)c1cn([C@@H](CO)CCn2ccc3ccc(NC(=O)CCCCc4ccccc4)cc32)cn1
REMARK SMILES IDX 12 1 13 2 14 3 15 4 16 5 17 6 18 7 32 8 33 9 11 10 10 11
REMARK SMILES IDX 7 12 6 13 4 14 5 15 35 16 34 17 2 18 1 19 3 20 8 23 9 24
REMARK SMILES IDX 19 26 20 27 21 28 22 30 23 31 24 32 25 33 26 34 27 35 31 36
REMARK SMILES IDX 28 37 30 38 29 39
REMARK H PARENT 1 21 1 22 9 25 19 29
ROOT
ATOM      1  N   UNL     1      49.867  50.779  18.967  1.00  0.00    -0.347 N 
ATOM      2  C   UNL     1      50.309  49.507  19.223  1.00  0.00    +0.087 A 
ATOM      3  C   UNL     1      51.147  49.560  20.313  1.00  0.00    +0.028 A 
ATOM      4  C   UNL     1      51.233  50.916  20.724  1.00  0.00    -0.000 A 
ATOM      5  C   UNL     1      51.925  51.576  21.755  1.00  0.00    +0.012 A 
ATOM      6  C   UNL     1      51.803  52.966  21.897  1.00  0.00    +0.027 A 
ATOM      7  C   UNL     1      51.012  53.711  21.026  1.00  0.00    +0.043 A 
ATOM      8  C   UNL     1      50.322  53.066  19.985  1.00  0.00    +0.053 A 
ATOM      9  C   UNL     1      50.438  51.669  19.856  1.00  0.00    +0.050 A 
ENDROOT
BRANCH   1  10
ATOM     10  C   UNL     1      48.919  51.111  17.919  1.00  0.00    +0.124 C 
BRANCH  10  11
ATOM     11  C   UNL     1      49.511  51.094  16.505  1.00  0.00    +0.050 C 
BRANCH  11  12
ATOM     12  C   UNL     1      49.624  49.701  15.850  1.00  0.00    +0.115 C 
BRANCH  12  13
ATOM     13  N   UNL     1      48.284  49.154  15.607  1.00  0.00    -0.331 N 
ATOM     14  C   UNL     1      46.375  48.102  15.792  1.00  0.00    +0.145 A 
ATOM     15  C   UNL     1      47.496  48.483  16.501  1.00  0.00    +0.121 A 
ATOM     16  N   UNL     1      46.479  48.534  14.477  1.00  0.00    -0.232 NA
ATOM     17  C   UNL     1      47.634  49.158  14.404  1.00  0.00    +0.200 A 
BRANCH  14  18
ATOM     18  C   UNL     1      45.230  47.354  16.303  1.00  0.00    +0.268 C 
ATOM     19  N   UNL     1      45.580  46.317  17.119  1.00  0.00    -0.364 N 
ATOM     20  O   UNL     1      44.062  47.609  16.035  1.00  0.00    -0.268 OA
ATOM     21  H   UNL     1      46.563  46.107  17.242  1.00  0.00    +0.160 HD
ATOM     22  H   UNL     1      44.866  45.705  17.478  1.00  0.00    +0.160 HD
ENDBRANCH  14  18
ENDBRANCH  12  13
BRANCH  12  23
ATOM     23  C   UNL     1      50.462  49.701  14.562  1.00  0.00    +0.181 C 
BRANCH  23  24
ATOM     24  O   UNL     1      51.215  48.496  14.441  1.00  0.00    -0.394 OA
ATOM     25  H   UNL     1      51.076  48.134  13.548  1.00  0.00    +0.210 HD
ENDBRANCH  23  24
ENDBRANCH  12  23
ENDBRANCH  11  12
ENDBRANCH  10  11
ENDBRANCH   1  10
BRANCH   7  26
ATOM     26  N   UNL     1      50.852  55.111  21.117  1.00  0.00    -0.326 N 
ATOM     27  C   UNL     1      51.787  56.092  20.819  1.00  0.00    +0.224 C 
ATOM     28  O   UNL     1      52.939  55.913  20.449  1.00  0.00    -0.275 OA
ATOM     29  H   UNL     1      49.958  55.433  21.465  1.00  0.00    +0.169 HD
BRANCH  27  30
ATOM     30  C   UNL     1      51.209  57.484  21.040  1.00  0.00    +0.100 C 
BRANCH  30  31
ATOM     31  C   UNL     1      49.992  57.517  21.964  1.00  0.00    +0.010 C 
BRANCH  31  32
ATOM     32  C   UNL     1      48.806  58.353  21.461  1.00  0.00    +0.005 C 
BRANCH  32  33
ATOM     33  C   UNL     1      47.669  57.563  20.799  1.00  0.00    +0.035 C 
BRANCH  33  34
ATOM     34  C   UNL     1      47.851  57.328  19.318  1.00  0.00    -0.048 A 
ATOM     35  C   UNL     1      48.416  56.133  18.850  1.00  0.00    +0.004 A 
ATOM     36  C   UNL     1      47.442  58.292  18.388  1.00  0.00    +0.004 A 
ATOM     37  C   UNL     1      48.579  55.915  17.480  1.00  0.00    +0.000 A 
ATOM     38  C   UNL     1      47.606  58.071  17.018  1.00  0.00    +0.000 A 
ATOM     39  C   UNL     1      48.175  56.884  16.565  1.00  0.00    +0.000 A 
ENDBRANCH  33  34
ENDBRANCH  32  33
ENDBRANCH  31  32
ENDBRANCH  30  31
ENDBRANCH  27  30
ENDBRANCH   7  26
TORSDOF 13
ENDMDL
MODEL 2
REMARK VINA RESULT:    -8.981      2.402      3.294
REMARK INTER + INTRA:         -17.317
REMARK INTER:                 -16.237
REMARK INTRA:                  -1.080
REMARK UNBOUND:                -1.773
REMARK SMILES NC(=O)c1cn([C@@H](CO)CCn2ccc3ccc(NC(=O)CCCCc4ccccc4)cc32)cn1
REMARK SMILES IDX 12 1 13 2 14 3 15 4 16 5 17 6 18 7 32 8 33 9 11 10 10 11
REMARK SMILES IDX 7 12 6 13 4 14 5 15 35 16 34 17 2 18 1 19 3 20 8 23 9 24
REMARK SMILES IDX 19 26 20 27 21 28 22 30 23 31 24 32 25 33 26 34 27 35 31 36
REMARK SMILES IDX 28 37 30 38 29 39
REMARK H PARENT 1 21 1 22 9 25 19 29
ROOT
ATOM      1  N   UNL     1      50.519  51.981  18.222  1.00  0.00    -0.347 N 
ATOM      2  C   UNL     1      51.706  51.341  17.973  1.00  0.00    +0.087 A 
ATOM      3  C   UNL     1      52.727  52.165  18.389  1.00  0.00    +0.028 A 
ATOM      4  C   UNL     1      52.141  53.356  18.891  1.00  0.00    -0.000 A 
ATOM      5  C   UNL     1      52.666  54.540  19.441  1.00  0.00    +0.012 A 
ATOM      6  C   UNL     1      51.798  55.563  19.848  1.00  0.00    +0.027 A 
ATOM      7  C   UNL     1      50.418  55.432  19.713  1.00  0.00    +0.043 A 
ATOM      8  C   UNL     1      49.880  54.259  19.156  1.00  0.00    +0.053 A 
ATOM      9  C   UNL     1      50.756  53.230  18.762  1.00  0.00    +0.050 A 
ENDROOT
BRANCH   1  10
ATOM     10  C   UNL     1      49.215  51.396  17.965  1.00  0.00    +0.124 C 
BRANCH  10  11
ATOM     11  C   UNL     1      48.950  51.072  16.490  1.00  0.00    +0.050 C 
BRANCH  11  12
ATOM     12  C   UNL     1      49.460  49.696  16.012  1.00  0.00    +0.115 C 
BRANCH  12  13
ATOM     13  N   UNL     1      48.393  48.696  16.143  1.00  0.00    -0.331 N 
ATOM     14  C   UNL     1      46.456  47.695  16.322  1.00  0.00    +0.145 A 
ATOM     15  C   UNL     1      47.047  48.914  16.056  1.00  0.00    +0.121 A 
ATOM     16  N   UNL     1      47.434  46.742  16.572  1.00  0.00    -0.232 NA
ATOM     17  C   UNL     1      48.579  47.377  16.456  1.00  0.00    +0.200 A 
BRANCH  14  18
ATOM     18  C   UNL     1      45.026  47.404  16.353  1.00  0.00    +0.268 C 
ATOM     19  N   UNL     1      44.701  46.364  17.175  1.00  0.00    -0.364 N 
ATOM     20  O   UNL     1      44.181  48.016  15.709  1.00  0.00    -0.268 OA
ATOM     21  H   UNL     1      45.449  45.847  17.620  1.00  0.00    +0.160 HD
ATOM     22  H   UNL     1      43.747  46.048  17.223  1.00  0.00    +0.160 HD
ENDBRANCH  14  18
ENDBRANCH  12  13
BRANCH  12  23
ATOM     23  C   UNL     1      50.022  49.718  14.582  1.00  0.00    +0.181 C 
BRANCH  23  24
ATOM     24  O   UNL     1      51.190  48.905  14.478  1.00  0.00    -0.394 OA
ATOM     25  H   UNL     1      51.745  49.063  15.261  1.00  0.00    +0.210 HD
ENDBRANCH  23  24
ENDBRANCH  12  23
ENDBRANCH  11  12
ENDBRANCH  10  11
ENDBRANCH   1  10
BRANCH   7  26
ATOM     26  N   UNL     1      49.495  56.427  20.102  1.00  0.00    -0.326 N 
ATOM     27  C   UNL     1      49.502  57.181  21.267  1.00  0.00    +0.224 C 
ATOM     28  O   UNL     1      50.304  57.092  22.188  1.00  0.00    -0.275 OA
ATOM     29  H   UNL     1      48.725  56.590  19.467  1.00  0.00    +0.169 HD
BRANCH  27  30
ATOM     30  C   UNL     1      48.334  58.157  21.295  1.00  0.00    +0.100 C 
BRANCH  30  31
ATOM     31  C   UNL     1      47.251  57.867  20.256  1.00  0.00    +0.010 C 
BRANCH  31  32
ATOM     32  C   UNL     1      47.189  58.851  19.078  1.00  0.00    +0.005 C 
BRANCH  32  33
ATOM     33  C   UNL     1      47.502  60.314  19.417  1.00  0.00    +0.035 C 
BRANCH  33  34
ATOM     34  C   UNL     1      46.303  61.230  19.397  1.00  0.00    -0.048 A 
ATOM     35  C   UNL     1      45.034  60.737  19.061  1.00  0.00    +0.004 A 
ATOM     36  C   UNL     1      46.434  62.584  19.733  1.00  0.00    +0.004 A 
ATOM     37  C   UNL     1      43.923  61.585  19.049  1.00  0.00    +0.000 A 
ATOM     38  C   UNL     1      45.322  63.430  19.720  1.00  0.00    +0.000 A 
ATOM     39  C   UNL     1      44.069  62.930  19.378  1.00  0.00    +0.000 A 
ENDBRANCH  33  34
ENDBRANCH  32  33
ENDBRANCH  31  32
ENDBRANCH  30  31
ENDBRANCH  27  30
ENDBRANCH   7  26
TORSDOF 13
ENDMDL
MODEL 3
REMARK VINA RESULT:    -8.830      3.734      8.910
REMARK INTER + INTRA:         -17.055
REMARK INTER:                 -15.443
REMARK INTRA:                  -1.611
REMARK UNBOUND:                -1.773
REMARK SMILES NC(=O)c1cn([C@@H](CO)CCn2ccc3ccc(NC(=O)CCCCc4ccccc4)cc32)cn1
REMARK SMILES IDX 12 1 13 2 14 3 15 4 16 5 17 6 18 7 32 8 33 9 11 10 10 11
REMARK SMILES IDX 7 12 6 13 4 14 5 15 35 16 34 17 2 18 1 19 3 20 8 23 9 24
REMARK SMILES IDX 19 26 20 27 21 28 22 30 23 31 24 32 25 33 26 34 27 35 31 36
REMARK SMILES IDX 28 37 30 38 29 39
REMARK H PARENT 1 21 1 22 9 25 19 29
ROOT
ATOM      1  N   UNL     1      48.734  56.875  20.163  1.00  0.00    -0.347 N 
ATOM      2  C   UNL     1      48.726  58.062  20.848  1.00  0.00    +0.087 A 
ATOM      3  C   UNL     1      49.685  57.989  21.832  1.00  0.00    +0.028 A 
ATOM      4  C   UNL     1      50.284  56.704  21.755  1.00  0.00    -0.000 A 
ATOM      5  C   UNL     1      51.299  56.061  22.486  1.00  0.00    +0.012 A 
ATOM      6  C   UNL     1      51.669  54.749  22.157  1.00  0.00    +0.027 A 
ATOM      7  C   UNL     1      51.042  54.063  21.119  1.00  0.00    +0.043 A 
ATOM      8  C   UNL     1      50.019  54.691  20.387  1.00  0.00    +0.053 A 
ATOM      9  C   UNL     1      49.662  56.013  20.713  1.00  0.00    +0.050 A 
ENDROOT
BRANCH   1  10
ATOM     10  C   UNL     1      47.891  56.599  19.013  1.00  0.00    +0.124 C 
BRANCH  10  11
ATOM     11  C   UNL     1      48.171  57.491  17.798  1.00  0.00    +0.050 C 
BRANCH  11  12
ATOM     12  C   UNL     1      46.936  57.862  16.949  1.00  0.00    +0.115 C 
BRANCH  12  13
ATOM     13  N   UNL     1      46.611  59.281  17.136  1.00  0.00    -0.331 N 
ATOM     14  C   UNL     1      46.477  61.328  17.897  1.00  0.00    +0.145 A 
ATOM     15  C   UNL     1      47.151  60.134  18.058  1.00  0.00    +0.121 A 
ATOM     16  N   UNL     1      45.531  61.204  16.889  1.00  0.00    -0.232 NA
ATOM     17  C   UNL     1      45.640  59.967  16.457  1.00  0.00    +0.200 A 
BRANCH  14  18
ATOM     18  C   UNL     1      46.687  62.559  18.653  1.00  0.00    +0.268 C 
ATOM     19  N   UNL     1      46.972  63.637  17.865  1.00  0.00    -0.364 N 
ATOM     20  O   UNL     1      46.625  62.641  19.874  1.00  0.00    -0.268 OA
ATOM     21  H   UNL     1      47.087  63.493  16.870  1.00  0.00    +0.160 HD
ATOM     22  H   UNL     1      47.189  64.522  18.293  1.00  0.00    +0.160 HD
ENDBRANCH  14  18
ENDBRANCH  12  13
BRANCH  12  23
ATOM     23  C   UNL     1      47.098  57.526  15.459  1.00  0.00    +0.181 C 
BRANCH  23  24
ATOM     24  O   UNL     1      48.469  57.309  15.128  1.00  0.00    -0.394 OA
ATOM     25  H   UNL     1      48.688  57.856  14.354  1.00  0.00    +0.210 HD
ENDBRANCH  23  24
ENDBRANCH  12  23
ENDBRANCH  11  12
ENDBRANCH  10  11
ENDBRANCH   1  10
BRANCH   7  26
ATOM     26  N   UNL     1      51.369  52.742  20.743  1.00  0.00    -0.326 N 
ATOM     27  C   UNL     1      52.203  52.336  19.712  1.00  0.00    +0.224 C 
ATOM     28  O   UNL     1      52.787  53.061  18.918  1.00  0.00    -0.275 OA
ATOM     29  H   UNL     1      50.919  52.008  21.274  1.00  0.00    +0.169 HD
BRANCH  27  30
ATOM     30  C   UNL     1      52.299  50.817  19.651  1.00  0.00    +0.100 C 
BRANCH  30  31
ATOM     31  C   UNL     1      51.284  50.091  20.534  1.00  0.00    +0.010 C 
BRANCH  31  32
ATOM     32  C   UNL     1      50.233  49.260  19.781  1.00  0.00    +0.005 C 
BRANCH  32  33
ATOM     33  C   UNL     1      49.653  49.910  18.518  1.00  0.00    +0.035 C 
BRANCH  33  34
ATOM     34  C   UNL     1      48.210  49.560  18.242  1.00  0.00    -0.048 A 
ATOM     35  C   UNL     1      47.605  48.470  18.884  1.00  0.00    +0.004 A 
ATOM     36  C   UNL     1      47.447  50.330  17.355  1.00  0.00    +0.004 A 
ATOM     37  C   UNL     1      46.269  48.150  18.632  1.00  0.00    +0.000 A 
ATOM     38  C   UNL     1      46.111  50.009  17.105  1.00  0.00    +0.000 A 
ATOM     39  C   UNL     1      45.523  48.920  17.742  1.00  0.00    +0.000 A 
ENDBRANCH  33  34
ENDBRANCH  32  33
ENDBRANCH  31  32
ENDBRANCH  30  31
ENDBRANCH  27  30
ENDBRANCH   7  26
TORSDOF 13
ENDMDL
MODEL 4
REMARK VINA RESULT:    -8.824      2.794      8.735
REMARK INTER + INTRA:         -17.045
REMARK INTER:                 -14.987
REMARK INTRA:                  -2.058
REMARK UNBOUND:                -1.773
REMARK SMILES NC(=O)c1cn([C@@H](CO)CCn2ccc3ccc(NC(=O)CCCCc4ccccc4)cc32)cn1
REMARK SMILES IDX 12 1 13 2 14 3 15 4 16 5 17 6 18 7 32 8 33 9 11 10 10 11
REMARK SMILES IDX 7 12 6 13 4 14 5 15 35 16 34 17 2 18 1 19 3 20 8 23 9 24
REMARK SMILES IDX 19 26 20 27 21 28 22 30 23 31 24 32 25 33 26 34 27 35 31 36
REMARK SMILES IDX 28 37 30 38 29 39
REMARK H PARENT 1 21 1 22 9 25 19 29
ROOT
ATOM      1  N   UNL     1      49.908  53.525  20.446  1.00  0.00    -0.347 N 
ATOM      2  C   UNL     1      50.532  53.786  21.639  1.00  0.00    +0.087 A 
ATOM      3  C   UNL     1      51.664  53.006  21.704  1.00  0.00    +0.028 A 
ATOM      4  C   UNL     1      51.721  52.229  20.517  1.00  0.00    -0.000 A 
ATOM      5  C   UNL     1      52.624  51.269  20.028  1.00  0.00    +0.012 A 
ATOM      6  C   UNL     1      52.389  50.662  18.786  1.00  0.00    +0.027 A 
ATOM      7  C   UNL     1      51.269  50.989  18.026  1.00  0.00    +0.043 A 
ATOM      8  C   UNL     1      50.353  51.941  18.507  1.00  0.00    +0.053 A 
ATOM      9  C   UNL     1      50.601  52.556  19.748  1.00  0.00    +0.050 A 
ENDROOT
BRANCH   1  10
ATOM     10  C   UNL     1      48.705  54.203  19.998  1.00  0.00    +0.124 C 
BRANCH  10  11
ATOM     11  C   UNL     1      48.657  55.696  20.342  1.00  0.00    +0.050 C 
BRANCH  11  12
ATOM     12  C   UNL     1      49.434  56.623  19.384  1.00  0.00    +0.115 C 
BRANCH  12  13
ATOM     13  N   UNL     1      50.814  56.786  19.858  1.00  0.00    -0.331 N 
ATOM     14  C   UNL     1      52.620  57.473  20.883  1.00  0.00    +0.145 A 
ATOM     15  C   UNL     1      51.246  57.607  20.862  1.00  0.00    +0.121 A 
ATOM     16  N   UNL     1      53.022  56.580  19.900  1.00  0.00    -0.232 NA
ATOM     17  C   UNL     1      51.915  56.191  19.307  1.00  0.00    +0.200 A 
BRANCH  14  18
ATOM     18  C   UNL     1      53.551  58.150  21.782  1.00  0.00    +0.268 C 
ATOM     19  N   UNL     1      53.017  59.251  22.387  1.00  0.00    -0.364 N 
ATOM     20  O   UNL     1      54.704  57.788  21.985  1.00  0.00    -0.268 OA
ATOM     21  H   UNL     1      52.085  59.546  22.121  1.00  0.00    +0.160 HD
ATOM     22  H   UNL     1      53.595  59.820  22.983  1.00  0.00    +0.160 HD
ENDBRANCH  14  18
ENDBRANCH  12  13
BRANCH  12  23
ATOM     23  C   UNL     1      49.406  56.150  17.922  1.00  0.00    +0.181 C 
BRANCH  23  24
ATOM     24  O   UNL     1      48.238  56.622  17.253  1.00  0.00    -0.394 OA
ATOM     25  H   UNL     1      48.508  57.288  16.597  1.00  0.00    +0.210 HD
ENDBRANCH  23  24
ENDBRANCH  12  23
ENDBRANCH  11  12
ENDBRANCH  10  11
ENDBRANCH   1  10
BRANCH   7  26
ATOM     26  N   UNL     1      50.978  50.411  16.771  1.00  0.00    -0.326 N 
ATOM     27  C   UNL     1      51.853  50.187  15.717  1.00  0.00    +0.224 C 
ATOM     28  O   UNL     1      53.039  50.484  15.680  1.00  0.00    -0.275 OA
ATOM     29  H   UNL     1      50.012  50.155  16.615  1.00  0.00    +0.169 HD
BRANCH  27  30
ATOM     30  C   UNL     1      51.140  49.529  14.543  1.00  0.00    +0.100 C 
BRANCH  30  31
ATOM     31  C   UNL     1      49.753  48.982  14.881  1.00  0.00    +0.010 C 
BRANCH  31  32
ATOM     32  C   UNL     1      48.577  49.903  14.523  1.00  0.00    +0.005 C 
BRANCH  32  33
ATOM     33  C   UNL     1      47.887  50.590  15.709  1.00  0.00    +0.035 C 
BRANCH  33  34
ATOM     34  C   UNL     1      47.203  49.645  16.667  1.00  0.00    -0.048 A 
ATOM     35  C   UNL     1      47.725  49.430  17.951  1.00  0.00    +0.004 A 
ATOM     36  C   UNL     1      46.026  48.983  16.297  1.00  0.00    +0.004 A 
ATOM     37  C   UNL     1      47.088  48.559  18.839  1.00  0.00    +0.000 A 
ATOM     38  C   UNL     1      45.390  48.114  17.187  1.00  0.00    +0.000 A 
ATOM     39  C   UNL     1      45.921  47.902  18.456  1.00  0.00    +0.000 A 
ENDBRANCH  33  34
ENDBRANCH  32  33
ENDBRANCH  31  32
ENDBRANCH  30  31
ENDBRANCH  27  30
ENDBRANCH   7  26
TORSDOF 13
ENDMDL
MODEL 5
REMARK VINA RESULT:    -8.529      3.008      8.682
REMARK INTER + INTRA:         -16.535
REMARK INTER:                 -14.854
REMARK INTRA:                  -1.681
REMARK UNBOUND:                -1.773
REMARK SMILES NC(=O)c1cn([C@@H](CO)CCn2ccc3ccc(NC(=O)CCCCc4ccccc4)cc32)cn1
REMARK SMILES IDX 12 1 13 2 14 3 15 4 16 5 17 6 18 7 32 8 33 9 11 10 10 11
REMARK SMILES IDX 7 12 6 13 4 14 5 15 35 16 34 17 2 18 1 19 3 20 8 23 9 24
REMARK SMILES IDX 19 26 20 27 21 28 22 30 23 31 24 32 25 33 26 34 27 35 31 36
REMARK SMILES IDX 28 37 30 38 29 39
REMARK H PARENT 1 21 1 22 9 25 19 29
ROOT
ATOM      1  N   UNL     1      51.004  54.562  20.633  1.00  0.00    -0.347 N 
ATOM      2  C   UNL     1      51.467  54.397  21.913  1.00  0.00    +0.087 A 
ATOM      3  C   UNL     1      51.622  53.049  22.137  1.00  0.00    +0.028 A 
ATOM      4  C   UNL     1      51.221  52.368  20.957  1.00  0.00    -0.000 A 
ATOM      5  C   UNL     1      51.155  51.011  20.595  1.00  0.00    +0.012 A 
ATOM      6  C   UNL     1      50.696  50.653  19.319  1.00  0.00    +0.027 A 
ATOM      7  C   UNL     1      50.293  51.620  18.402  1.00  0.00    +0.043 A 
ATOM      8  C   UNL     1      50.344  52.980  18.755  1.00  0.00    +0.053 A 
ATOM      9  C   UNL     1      50.819  53.333  20.031  1.00  0.00    +0.050 A 
ENDROOT
BRANCH   1  10
ATOM     10  C   UNL     1      50.772  55.857  20.018  1.00  0.00    +0.124 C 
BRANCH  10  11
ATOM     11  C   UNL     1      49.292  56.237  19.890  1.00  0.00    +0.050 C 
BRANCH  11  12
ATOM     12  C   UNL     1      48.981  57.743  20.015  1.00  0.00    +0.115 C 
BRANCH  12  13
ATOM     13  N   UNL     1      48.123  58.170  18.903  1.00  0.00    -0.331 N 
ATOM     14  C   UNL     1      47.049  58.296  17.002  1.00  0.00    +0.145 A 
ATOM     15  C   UNL     1      47.816  57.453  17.780  1.00  0.00    +0.121 A 
ATOM     16  N   UNL     1      46.892  59.517  17.642  1.00  0.00    -0.232 NA
ATOM     17  C   UNL     1      47.548  59.405  18.776  1.00  0.00    +0.200 A 
BRANCH  14  18
ATOM     18  C   UNL     1      46.473  57.996  15.694  1.00  0.00    +0.268 C 
ATOM     19  N   UNL     1      47.374  57.474  14.811  1.00  0.00    -0.364 N 
ATOM     20  O   UNL     1      45.301  58.189  15.393  1.00  0.00    -0.268 OA
ATOM     21  H   UNL     1      48.345  57.409  15.091  1.00  0.00    +0.160 HD
ATOM     22  H   UNL     1      47.090  57.285  13.864  1.00  0.00    +0.160 HD
ENDBRANCH  14  18
ENDBRANCH  12  13
BRANCH  12  23
ATOM     23  C   UNL     1      48.361  58.127  21.368  1.00  0.00    +0.181 C 
BRANCH  23  24
ATOM     24  O   UNL     1      49.371  58.456  22.320  1.00  0.00    -0.394 OA
ATOM     25  H   UNL     1      48.948  58.573  23.189  1.00  0.00    +0.210 HD
ENDBRANCH  23  24
ENDBRANCH  12  23
ENDBRANCH  11  12
ENDBRANCH  10  11
ENDBRANCH   1  10
BRANCH   7  26
ATOM     26  N   UNL     1      49.820  51.321  17.105  1.00  0.00    -0.326 N 
ATOM     27  C   UNL     1      48.501  51.228  16.685  1.00  0.00    +0.224 C 
ATOM     28  O   UNL     1      47.503  51.360  17.381  1.00  0.00    -0.275 OA
ATOM     29  H   UNL     1      50.528  51.128  16.410  1.00  0.00    +0.169 HD
BRANCH  27  30
ATOM     30  C   UNL     1      48.421  50.898  15.200  1.00  0.00    +0.100 C 
BRANCH  30  31
ATOM     31  C   UNL     1      48.224  49.413  14.899  1.00  0.00    +0.010 C 
BRANCH  31  32
ATOM     32  C   UNL     1      49.250  48.468  15.544  1.00  0.00    +0.005 C 
BRANCH  32  33
ATOM     33  C   UNL     1      48.671  47.209  16.202  1.00  0.00    +0.035 C 
BRANCH  33  34
ATOM     34  C   UNL     1      47.341  47.416  16.885  1.00  0.00    -0.048 A 
ATOM     35  C   UNL     1      46.155  46.961  16.290  1.00  0.00    +0.004 A 
ATOM     36  C   UNL     1      47.271  48.049  18.133  1.00  0.00    +0.004 A 
ATOM     37  C   UNL     1      44.925  47.148  16.926  1.00  0.00    +0.000 A 
ATOM     38  C   UNL     1      46.039  48.235  18.767  1.00  0.00    +0.000 A 
ATOM     39  C   UNL     1      44.868  47.785  18.163  1.00  0.00    +0.000 A 
ENDBRANCH  33  34
ENDBRANCH  32  33
ENDBRANCH  31  32
ENDBRANCH  30  31
ENDBRANCH  27  30
ENDBRANCH   7  26
TORSDOF 13
ENDMDL
