MODEL 1
REMARK VINA RESULT:    -9.582      0.000      0.000
REMARK INTER + INTRA:         -17.344
REMARK INTER:                 -15.463
REMARK INTRA:                  -1.880
REMARK UNBOUND:                -1.880
REMARK SMILES Cc1ccc(CCC(=O)Nc2ccc3ccn(CC[C@H](CO)n4cnc(C(N)=O)c4)c3c2)cc1
REMARK SMILES IDX 11 1 12 2 13 3 14 4 15 5 16 6 17 7 31 8 32 9 10 10 8 11 9 12
REMARK SMILES IDX 7 14 6 15 5 16 2 17 3 18 34 19 4 20 33 21 1 22 18 23 19 24
REMARK SMILES IDX 20 25 21 26 22 27 23 29 24 30 30 31 25 32 26 33 27 34 28 35
REMARK SMILES IDX 29 36
REMARK H PARENT 10 13 22 28 28 37 28 38
ROOT
ATOM      1  C   UNL     1      48.751  53.279  18.001  1.00  0.00    +0.043 A 
ATOM      2  C   UNL     1      48.292  53.718  16.756  1.00  0.00    +0.027 A 
ATOM      3  C   UNL     1      48.006  55.069  16.521  1.00  0.00    +0.012 A 
ATOM      4  C   UNL     1      48.180  56.003  17.558  1.00  0.00    -0.000 A 
ATOM      5  C   UNL     1      47.969  57.403  17.664  1.00  0.00    +0.028 A 
ATOM      6  C   UNL     1      48.284  57.776  18.949  1.00  0.00    +0.087 A 
ATOM      7  N   UNL     1      48.714  56.661  19.621  1.00  0.00    -0.347 N 
ATOM      8  C   UNL     1      48.638  55.555  18.799  1.00  0.00    +0.050 A 
ATOM      9  C   UNL     1      48.925  54.198  19.041  1.00  0.00    +0.053 A 
ENDROOT
BRANCH   1  10
ATOM     10  N   UNL     1      48.996  51.896  18.134  1.00  0.00    -0.326 N 
ATOM     11  C   UNL     1      50.212  51.243  18.107  1.00  0.00    +0.224 C 
ATOM     12  O   UNL     1      51.311  51.748  17.895  1.00  0.00    -0.275 OA
ATOM     13  H   UNL     1      48.178  51.325  18.326  1.00  0.00    +0.169 HD
BRANCH  11  14
ATOM     14  C   UNL     1      50.092  49.753  18.379  1.00  0.00    +0.105 C 
BRANCH  14  15
ATOM     15  C   UNL     1      48.674  49.357  18.784  1.00  0.00    +0.045 C 
BRANCH  15  16
ATOM     16  C   UNL     1      47.793  49.016  17.606  1.00  0.00    -0.047 A 
ATOM     17  C   UNL     1      46.140  48.283  15.447  1.00  0.00    -0.051 A 
ATOM     18  C   UNL     1      47.523  48.094  15.376  1.00  0.00    +0.004 A 
ATOM     19  C   UNL     1      45.591  48.862  16.596  1.00  0.00    +0.004 A 
ATOM     20  C   UNL     1      48.344  48.457  16.446  1.00  0.00    +0.004 A 
ATOM     21  C   UNL     1      46.410  49.221  17.669  1.00  0.00    +0.004 A 
ATOM     22  C   UNL     1      45.272  47.928  14.279  1.00  0.00    +0.044 C 
ENDBRANCH  15  16
ENDBRANCH  14  15
ENDBRANCH  11  14
ENDBRANCH   1  10
BRANCH   7  23
ATOM     23  C   UNL     1      49.144  56.664  21.011  1.00  0.00    +0.124 C 
BRANCH  23  24
ATOM     24  C   UNL     1      50.280  57.642  21.327  1.00  0.00    +0.050 C 
BRANCH  24  25
ATOM     25  C   UNL     1      51.541  57.000  21.939  1.00  0.00    +0.115 C 
BRANCH  25  26
ATOM     26  C   UNL     1      52.774  57.916  21.796  1.00  0.00    +0.181 C 
BRANCH  26  27
ATOM     27  O   UNL     1      53.843  57.489  22.632  1.00  0.00    -0.394 OA
ATOM     28  H   UNL     1      53.453  56.963  23.353  1.00  0.00    +0.210 HD
ENDBRANCH  26  27
ENDBRANCH  25  26
BRANCH  25  29
ATOM     29  N   UNL     1      51.814  55.668  21.408  1.00  0.00    -0.331 N 
ATOM     30  C   UNL     1      52.285  55.366  20.164  1.00  0.00    +0.200 A 
ATOM     31  C   UNL     1      51.622  54.488  22.076  1.00  0.00    +0.121 A 
ATOM     32  N   UNL     1      52.367  54.067  19.988  1.00  0.00    -0.232 NA
ATOM     33  C   UNL     1      51.953  53.487  21.175  1.00  0.00    +0.145 A 
BRANCH  33  34
ATOM     34  C   UNL     1      51.891  52.035  21.371  1.00  0.00    +0.268 C 
ATOM     35  N   UNL     1      50.856  51.575  22.144  1.00  0.00    -0.364 N 
ATOM     36  O   UNL     1      52.695  51.235  20.904  1.00  0.00    -0.268 OA
ATOM     37  H   UNL     1      50.888  50.593  22.378  1.00  0.00    +0.160 HD
ATOM     38  H   UNL     1      50.307  52.193  22.720  1.00  0.00    +0.160 HD
ENDBRANCH  33  34
ENDBRANCH  25  29
ENDBRANCH  24  25
ENDBRANCH  23  24
ENDBRANCH   7  23
TORSDOF 11
ENDMDL
MODEL 2
REMARK VINA RESULT:    -9.274      1.551      2.198
REMARK INTER + INTRA:         -16.847
REMARK INTER:                 -16.107
REMARK INTRA:                  -0.740
REMARK UNBOUND:                -1.880
REMARK SMILES Cc1ccc(CCC(=O)Nc2ccc3ccn(CC[C@H](CO)n4cnc(C(N)=O)c4)c3c2)cc1
REMARK SMILES IDX 11 1 12 2 13 3 14 4 15 5 16 6 17 7 31 8 32 9 10 10 8 11 9 12
REMARK SMILES IDX 7 14 6 15 5 16 2 17 3 18 34 19 4 20 33 21 1 22 18 23 19 24
REMARK SMILES IDX 20 25 21 26 22 27 23 29 24 30 30 31 25 32 26 33 27 34 28 35
REMARK SMILES IDX 29 36
REMARK H PARENT 10 13 22 28 28 37 28 38
ROOT
ATOM      1  C   UNL     1      48.479  55.018  17.285  1.00  0.00    +0.043 A 
ATOM      2  C   UNL     1      47.885  55.633  16.179  1.00  0.00    +0.027 A 
ATOM      3  C   UNL     1      47.495  56.978  16.216  1.00  0.00    +0.012 A 
ATOM      4  C   UNL     1      47.702  57.725  17.390  1.00  0.00    -0.000 A 
ATOM      5  C   UNL     1      47.413  59.064  17.765  1.00  0.00    +0.028 A 
ATOM      6  C   UNL     1      47.817  59.228  19.068  1.00  0.00    +0.087 A 
ATOM      7  N   UNL     1      48.374  58.049  19.492  1.00  0.00    -0.347 N 
ATOM      8  C   UNL     1      48.295  57.102  18.490  1.00  0.00    +0.050 A 
ATOM      9  C   UNL     1      48.687  55.751  18.459  1.00  0.00    +0.053 A 
ENDROOT
BRANCH   1  10
ATOM     10  N   UNL     1      48.822  53.658  17.145  1.00  0.00    -0.326 N 
ATOM     11  C   UNL     1      47.973  52.569  17.088  1.00  0.00    +0.224 C 
ATOM     12  O   UNL     1      46.753  52.585  17.215  1.00  0.00    -0.275 OA
ATOM     13  H   UNL     1      49.812  53.468  17.019  1.00  0.00    +0.169 HD
BRANCH  11  14
ATOM     14  C   UNL     1      48.703  51.260  16.838  1.00  0.00    +0.105 C 
BRANCH  14  15
ATOM     15  C   UNL     1      47.823  50.244  16.113  1.00  0.00    +0.045 C 
BRANCH  15  16
ATOM     16  C   UNL     1      46.970  49.423  17.049  1.00  0.00    -0.047 A 
ATOM     17  C   UNL     1      45.409  47.804  18.745  1.00  0.00    -0.051 A 
ATOM     18  C   UNL     1      44.875  48.305  17.553  1.00  0.00    +0.004 A 
ATOM     19  C   UNL     1      46.723  48.136  19.092  1.00  0.00    +0.004 A 
ATOM     20  C   UNL     1      45.648  49.107  16.712  1.00  0.00    +0.004 A 
ATOM     21  C   UNL     1      47.499  48.935  18.249  1.00  0.00    +0.004 A 
ATOM     22  C   UNL     1      44.560  46.977  19.660  1.00  0.00    +0.044 C 
ENDBRANCH  15  16
ENDBRANCH  14  15
ENDBRANCH  11  14
ENDBRANCH   1  10
BRANCH   7  23
ATOM     23  C   UNL     1      48.925  57.840  20.822  1.00  0.00    +0.124 C 
BRANCH  23  24
ATOM     24  C   UNL     1      49.346  56.397  21.121  1.00  0.00    +0.050 C 
BRANCH  24  25
ATOM     25  C   UNL     1      50.826  56.218  21.514  1.00  0.00    +0.115 C 
BRANCH  25  26
ATOM     26  C   UNL     1      51.679  57.432  21.092  1.00  0.00    +0.181 C 
BRANCH  26  27
ATOM     27  O   UNL     1      52.334  58.025  22.208  1.00  0.00    -0.394 OA
ATOM     28  H   UNL     1      52.335  57.365  22.925  1.00  0.00    +0.210 HD
ENDBRANCH  26  27
ENDBRANCH  25  26
BRANCH  25  29
ATOM     29  N   UNL     1      51.400  54.974  21.011  1.00  0.00    -0.331 N 
ATOM     30  C   UNL     1      52.036  54.792  19.819  1.00  0.00    +0.200 A 
ATOM     31  C   UNL     1      51.377  53.766  21.656  1.00  0.00    +0.121 A 
ATOM     32  N   UNL     1      52.385  53.538  19.650  1.00  0.00    -0.232 NA
ATOM     33  C   UNL     1      51.980  52.866  20.791  1.00  0.00    +0.145 A 
BRANCH  33  34
ATOM     34  C   UNL     1      52.180  51.425  20.978  1.00  0.00    +0.268 C 
ATOM     35  N   UNL     1      51.297  50.798  21.818  1.00  0.00    -0.364 N 
ATOM     36  O   UNL     1      53.074  50.773  20.448  1.00  0.00    -0.268 OA
ATOM     37  H   UNL     1      51.513  49.836  22.041  1.00  0.00    +0.160 HD
ATOM     38  H   UNL     1      50.693  51.314  22.438  1.00  0.00    +0.160 HD
ENDBRANCH  33  34
ENDBRANCH  25  29
ENDBRANCH  24  25
ENDBRANCH  23  24
ENDBRANCH   7  23
TORSDOF 11
ENDMDL
MODEL 3
REMARK VINA RESULT:    -9.184      2.749      5.337
REMARK INTER + INTRA:         -16.702
REMARK INTER:                 -15.437
REMARK INTRA:                  -1.265
REMARK UNBOUND:                -1.880
REMARK SMILES Cc1ccc(CCC(=O)Nc2ccc3ccn(CC[C@H](CO)n4cnc(C(N)=O)c4)c3c2)cc1
REMARK SMILES IDX 11 1 12 2 13 3 14 4 15 5 16 6 17 7 31 8 32 9 10 10 8 11 9 12
REMARK SMILES IDX 7 14 6 15 5 16 2 17 3 18 34 19 4 20 33 21 1 22 18 23 19 24
REMARK SMILES IDX 20 25 21 26 22 27 23 29 24 30 30 31 25 32 26 33 27 34 28 35
REMARK SMILES IDX 29 36
REMARK H PARENT 10 13 22 28 28 37 28 38
ROOT
ATOM      1  C   UNL     1      50.463  52.882  19.872  1.00  0.00    +0.043 A 
ATOM      2  C   UNL     1      51.017  52.237  20.982  1.00  0.00    +0.027 A 
ATOM      3  C   UNL     1      51.454  52.959  22.100  1.00  0.00    +0.012 A 
ATOM      4  C   UNL     1      51.338  54.361  22.106  1.00  0.00    -0.000 A 
ATOM      5  C   UNL     1      51.693  55.371  23.039  1.00  0.00    +0.028 A 
ATOM      6  C   UNL     1      51.366  56.585  22.483  1.00  0.00    +0.087 A 
ATOM      7  N   UNL     1      50.793  56.351  21.259  1.00  0.00    -0.347 N 
ATOM      8  C   UNL     1      50.784  54.997  20.992  1.00  0.00    +0.050 A 
ATOM      9  C   UNL     1      50.345  54.276  19.866  1.00  0.00    +0.053 A 
ENDROOT
BRANCH   1  10
ATOM     10  N   UNL     1      50.066  52.062  18.796  1.00  0.00    -0.326 N 
ATOM     11  C   UNL     1      50.869  51.312  17.958  1.00  0.00    +0.224 C 
ATOM     12  O   UNL     1      52.096  51.274  17.960  1.00  0.00    -0.275 OA
ATOM     13  H   UNL     1      49.064  51.976  18.659  1.00  0.00    +0.169 HD
BRANCH  11  14
ATOM     14  C   UNL     1      50.077  50.477  16.967  1.00  0.00    +0.105 C 
BRANCH  14  15
ATOM     15  C   UNL     1      48.631  50.954  16.842  1.00  0.00    +0.045 C 
BRANCH  15  16
ATOM     16  C   UNL     1      47.632  49.974  17.405  1.00  0.00    -0.047 A 
ATOM     17  C   UNL     1      45.742  48.214  18.530  1.00  0.00    -0.051 A 
ATOM     18  C   UNL     1      47.067  48.211  18.976  1.00  0.00    +0.004 A 
ATOM     19  C   UNL     1      45.373  49.089  17.502  1.00  0.00    +0.004 A 
ATOM     20  C   UNL     1      48.005  49.083  18.419  1.00  0.00    +0.004 A 
ATOM     21  C   UNL     1      46.309  49.965  16.947  1.00  0.00    +0.004 A 
ATOM     22  C   UNL     1      44.753  47.249  19.106  1.00  0.00    +0.044 C 
ENDBRANCH  15  16
ENDBRANCH  14  15
ENDBRANCH  11  14
ENDBRANCH   1  10
BRANCH   7  23
ATOM     23  C   UNL     1      50.308  57.398  20.374  1.00  0.00    +0.124 C 
BRANCH  23  24
ATOM     24  C   UNL     1      48.782  57.495  20.272  1.00  0.00    +0.050 C 
BRANCH  24  25
ATOM     25  C   UNL     1      48.261  58.454  19.184  1.00  0.00    +0.115 C 
BRANCH  25  26
ATOM     26  C   UNL     1      47.062  59.286  19.683  1.00  0.00    +0.181 C 
BRANCH  26  27
ATOM     27  O   UNL     1      47.185  60.655  19.315  1.00  0.00    -0.394 OA
ATOM     28  H   UNL     1      47.262  60.687  18.344  1.00  0.00    +0.210 HD
ENDBRANCH  26  27
ENDBRANCH  25  26
BRANCH  25  29
ATOM     29  N   UNL     1      47.942  57.773  17.933  1.00  0.00    -0.331 N 
ATOM     30  C   UNL     1      48.374  56.539  17.542  1.00  0.00    +0.200 A 
ATOM     31  C   UNL     1      47.160  58.274  16.927  1.00  0.00    +0.121 A 
ATOM     32  N   UNL     1      47.947  56.244  16.337  1.00  0.00    -0.232 NA
ATOM     33  C   UNL     1      47.181  57.320  15.922  1.00  0.00    +0.145 A 
BRANCH  33  34
ATOM     34  C   UNL     1      46.535  57.376  14.606  1.00  0.00    +0.268 C 
ATOM     35  N   UNL     1      45.194  57.093  14.581  1.00  0.00    -0.364 N 
ATOM     36  O   UNL     1      47.114  57.643  13.558  1.00  0.00    -0.268 OA
ATOM     37  H   UNL     1      44.781  57.011  13.662  1.00  0.00    +0.160 HD
ATOM     38  H   UNL     1      44.726  56.662  15.362  1.00  0.00    +0.160 HD
ENDBRANCH  33  34
ENDBRANCH  25  29
ENDBRANCH  24  25
ENDBRANCH  23  24
ENDBRANCH   7  23
TORSDOF 11
ENDMDL
MODEL 4
REMARK VINA RESULT:    -9.157      3.810      9.389
REMARK INTER + INTRA:         -16.657
REMARK INTER:                 -15.563
REMARK INTRA:                  -1.094
REMARK UNBOUND:                -1.880
REMARK SMILES Cc1ccc(CCC(=O)Nc2ccc3ccn(CC[C@H](CO)n4cnc(C(N)=O)c4)c3c2)cc1
REMARK SMILES IDX 11 1 12 2 13 3 14 4 15 5 16 6 17 7 31 8 32 9 10 10 8 11 9 12
REMARK SMILES IDX 7 14 6 15 5 16 2 17 3 18 34 19 4 20 33 21 1 22 18 23 19 24
REMARK SMILES IDX 20 25 21 26 22 27 23 29 24 30 30 31 25 32 26 33 27 34 28 35
REMARK SMILES IDX 29 36
REMARK H PARENT 10 13 22 28 28 37 28 38
ROOT
ATOM      1  C   UNL     1      49.637  56.252  19.875  1.00  0.00    +0.043 A 
ATOM      2  C   UNL     1      50.365  56.564  21.027  1.00  0.00    +0.027 A 
ATOM      3  C   UNL     1      51.058  55.576  21.740  1.00  0.00    +0.012 A 
ATOM      4  C   UNL     1      51.016  54.243  21.292  1.00  0.00    -0.000 A 
ATOM      5  C   UNL     1      51.568  53.028  21.776  1.00  0.00    +0.028 A 
ATOM      6  C   UNL     1      51.161  52.021  20.934  1.00  0.00    +0.087 A 
ATOM      7  N   UNL     1      50.409  52.582  19.934  1.00  0.00    -0.347 N 
ATOM      8  C   UNL     1      50.285  53.941  20.141  1.00  0.00    +0.050 A 
ATOM      9  C   UNL     1      49.586  54.929  19.422  1.00  0.00    +0.053 A 
ENDROOT
BRANCH   1  10
ATOM     10  N   UNL     1      48.968  57.318  19.241  1.00  0.00    -0.326 N 
ATOM     11  C   UNL     1      47.819  57.966  19.652  1.00  0.00    +0.224 C 
ATOM     12  O   UNL     1      47.128  57.683  20.627  1.00  0.00    -0.275 OA
ATOM     13  H   UNL     1      49.420  57.684  18.408  1.00  0.00    +0.169 HD
BRANCH  11  14
ATOM     14  C   UNL     1      47.444  59.135  18.758  1.00  0.00    +0.105 C 
BRANCH  14  15
ATOM     15  C   UNL     1      47.530  60.470  19.494  1.00  0.00    +0.045 C 
BRANCH  15  16
ATOM     16  C   UNL     1      46.249  61.266  19.432  1.00  0.00    -0.047 A 
ATOM     17  C   UNL     1      43.842  62.730  19.417  1.00  0.00    -0.051 A 
ATOM     18  C   UNL     1      43.840  61.359  19.140  1.00  0.00    +0.004 A 
ATOM     19  C   UNL     1      45.059  63.368  19.681  1.00  0.00    +0.004 A 
ATOM     20  C   UNL     1      45.032  60.633  19.147  1.00  0.00    +0.004 A 
ATOM     21  C   UNL     1      46.252  62.641  19.692  1.00  0.00    +0.004 A 
ATOM     22  C   UNL     1      42.564  63.508  19.369  1.00  0.00    +0.044 C 
ENDBRANCH  15  16
ENDBRANCH  14  15
ENDBRANCH  11  14
ENDBRANCH   1  10
BRANCH   7  23
ATOM     23  C   UNL     1      49.809  51.827  18.845  1.00  0.00    +0.124 C 
BRANCH  23  24
ATOM     24  C   UNL     1      49.870  50.304  19.012  1.00  0.00    +0.050 C 
BRANCH  24  25
ATOM     25  C   UNL     1      49.685  49.498  17.711  1.00  0.00    +0.115 C 
BRANCH  25  26
ATOM     26  C   UNL     1      49.699  50.410  16.468  1.00  0.00    +0.181 C 
BRANCH  26  27
ATOM     27  O   UNL     1      50.958  50.374  15.805  1.00  0.00    -0.394 OA
ATOM     28  H   UNL     1      50.802  50.625  14.877  1.00  0.00    +0.210 HD
ENDBRANCH  26  27
ENDBRANCH  25  26
BRANCH  25  29
ATOM     29  N   UNL     1      48.493  48.656  17.730  1.00  0.00    -0.331 N 
ATOM     30  C   UNL     1      48.206  47.628  16.881  1.00  0.00    +0.200 A 
ATOM     31  C   UNL     1      47.445  48.775  18.604  1.00  0.00    +0.121 A 
ATOM     32  N   UNL     1      47.027  47.112  17.138  1.00  0.00    -0.232 NA
ATOM     33  C   UNL     1      46.522  47.816  18.217  1.00  0.00    +0.145 A 
BRANCH  33  34
ATOM     34  C   UNL     1      45.203  47.542  18.798  1.00  0.00    +0.268 C 
ATOM     35  N   UNL     1      44.122  47.916  18.042  1.00  0.00    -0.364 N 
ATOM     36  O   UNL     1      45.020  47.022  19.894  1.00  0.00    -0.268 OA
ATOM     37  H   UNL     1      43.223  47.841  18.497  1.00  0.00    +0.160 HD
ATOM     38  H   UNL     1      44.214  48.533  17.251  1.00  0.00    +0.160 HD
ENDBRANCH  33  34
ENDBRANCH  25  29
ENDBRANCH  24  25
ENDBRANCH  23  24
ENDBRANCH   7  23
TORSDOF 11
ENDMDL
MODEL 5
REMARK VINA RESULT:    -9.066      2.290      4.993
REMARK INTER + INTRA:         -16.512
REMARK INTER:                 -15.179
REMARK INTRA:                  -1.333
REMARK UNBOUND:                -1.880
REMARK SMILES Cc1ccc(CCC(=O)Nc2ccc3ccn(CC[C@H](CO)n4cnc(C(N)=O)c4)c3c2)cc1
REMARK SMILES IDX 11 1 12 2 13 3 14 4 15 5 16 6 17 7 31 8 32 9 10 10 8 11 9 12
REMARK SMILES IDX 7 14 6 15 5 16 2 17 3 18 34 19 4 20 33 21 1 22 18 23 19 24
REMARK SMILES IDX 20 25 21 26 22 27 23 29 24 30 30 31 25 32 26 33 27 34 28 35
REMARK SMILES IDX 29 36
REMARK H PARENT 10 13 22 28 28 37 28 38
ROOT
ATOM      1  C   UNL     1      49.316  50.048  17.518  1.00  0.00    +0.043 A 
ATOM      2  C   UNL     1      48.926  49.076  18.444  1.00  0.00    +0.027 A 
ATOM      3  C   UNL     1      49.567  48.952  19.684  1.00  0.00    +0.012 A 
ATOM      4  C   UNL     1      50.629  49.818  20.002  1.00  0.00    -0.000 A 
ATOM      5  C   UNL     1      51.487  49.947  21.126  1.00  0.00    +0.028 A 
ATOM      6  C   UNL     1      52.372  50.964  20.860  1.00  0.00    +0.087 A 
ATOM      7  N   UNL     1      52.064  51.484  19.630  1.00  0.00    -0.347 N 
ATOM      8  C   UNL     1      51.013  50.785  19.070  1.00  0.00    +0.050 A 
ATOM      9  C   UNL     1      50.373  50.913  17.824  1.00  0.00    +0.053 A 
ENDROOT
BRANCH   1  10
ATOM     10  N   UNL     1      48.612  50.079  16.297  1.00  0.00    -0.326 N 
ATOM     11  C   UNL     1      48.846  49.327  15.163  1.00  0.00    +0.224 C 
ATOM     12  O   UNL     1      49.762  48.529  14.988  1.00  0.00    -0.275 OA
ATOM     13  H   UNL     1      47.804  50.694  16.275  1.00  0.00    +0.169 HD
BRANCH  11  14
ATOM     14  C   UNL     1      47.819  49.567  14.069  1.00  0.00    +0.105 C 
BRANCH  14  15
ATOM     15  C   UNL     1      46.708  48.520  14.085  1.00  0.00    +0.045 C 
BRANCH  15  16
ATOM     16  C   UNL     1      46.254  48.157  15.478  1.00  0.00    -0.047 A 
ATOM     17  C   UNL     1      45.497  47.520  18.115  1.00  0.00    -0.051 A 
ATOM     18  C   UNL     1      46.237  46.612  17.351  1.00  0.00    +0.004 A 
ATOM     19  C   UNL     1      45.119  48.739  17.543  1.00  0.00    +0.004 A 
ATOM     20  C   UNL     1      46.613  46.927  16.044  1.00  0.00    +0.004 A 
ATOM     21  C   UNL     1      45.498  49.057  16.237  1.00  0.00    +0.004 A 
ATOM     22  C   UNL     1      45.064  47.157  19.502  1.00  0.00    +0.044 C 
ENDBRANCH  15  16
ENDBRANCH  14  15
ENDBRANCH  11  14
ENDBRANCH   1  10
BRANCH   7  23
ATOM     23  C   UNL     1      52.780  52.588  19.009  1.00  0.00    +0.124 C 
BRANCH  23  24
ATOM     24  C   UNL     1      51.907  53.792  18.641  1.00  0.00    +0.050 C 
BRANCH  24  25
ATOM     25  C   UNL     1      50.973  54.287  19.763  1.00  0.00    +0.115 C 
BRANCH  25  26
ATOM     26  C   UNL     1      49.635  54.811  19.202  1.00  0.00    +0.181 C 
BRANCH  26  27
ATOM     27  O   UNL     1      48.863  55.458  20.206  1.00  0.00    -0.394 OA
ATOM     28  H   UNL     1      47.954  55.537  19.865  1.00  0.00    +0.210 HD
ENDBRANCH  26  27
ENDBRANCH  25  26
BRANCH  25  29
ATOM     29  N   UNL     1      51.602  55.280  20.628  1.00  0.00    -0.331 N 
ATOM     30  C   UNL     1      51.567  55.314  21.991  1.00  0.00    +0.200 A 
ATOM     31  C   UNL     1      52.326  56.363  20.206  1.00  0.00    +0.121 A 
ATOM     32  N   UNL     1      52.190  56.371  22.458  1.00  0.00    -0.232 NA
ATOM     33  C   UNL     1      52.677  57.053  21.356  1.00  0.00    +0.145 A 
BRANCH  33  34
ATOM     34  C   UNL     1      53.426  58.309  21.466  1.00  0.00    +0.268 C 
ATOM     35  N   UNL     1      52.999  59.184  22.430  1.00  0.00    -0.364 N 
ATOM     36  O   UNL     1      54.380  58.614  20.756  1.00  0.00    -0.268 OA
ATOM     37  H   UNL     1      53.436  60.095  22.420  1.00  0.00    +0.160 HD
ATOM     38  H   UNL     1      52.105  59.082  22.883  1.00  0.00    +0.160 HD
ENDBRANCH  33  34
ENDBRANCH  25  29
ENDBRANCH  24  25
ENDBRANCH  23  24
ENDBRANCH   7  23
TORSDOF 11
ENDMDL
