MODEL 1
REMARK VINA RESULT:    -9.336      0.000      0.000
REMARK INTER + INTRA:         -17.658
REMARK INTER:                 -15.612
REMARK INTRA:                  -2.046
REMARK UNBOUND:                -2.046
REMARK SMILES Cn1cc(CC[C@H](CO)n2cnc(C(N)=O)c2)c2cc(OCCCc3ccccc3)ccc21
REMARK SMILES IDX 1 1 2 2 3 3 4 4 18 5 19 6 20 7 31 8 32 9 33 10 5 11 6 12
REMARK SMILES IDX 7 13 8 14 9 15 10 17 11 18 17 19 12 20 13 21 14 22 15 23
REMARK SMILES IDX 16 24 21 27 22 28 23 29 24 30 25 31 26 32 30 33 27 34 29 35
REMARK SMILES IDX 28 36
REMARK H PARENT 9 16 15 25 15 26
ROOT
ATOM      1  C   UNL     1      47.187  57.923  16.318  1.00  0.00    +0.149 C 
ATOM      2  N   UNL     1      47.778  57.174  17.404  1.00  0.00    -0.350 N 
ATOM      3  C   UNL     1      48.118  57.703  18.619  1.00  0.00    +0.090 A 
ATOM      4  C   UNL     1      48.654  56.698  19.400  1.00  0.00    -0.022 A 
ATOM      5  C   UNL     1      48.608  55.498  18.619  1.00  0.00    +0.006 A 
ATOM      6  C   UNL     1      48.981  54.156  18.866  1.00  0.00    +0.057 A 
ATOM      7  C   UNL     1      48.814  53.189  17.870  1.00  0.00    +0.120 A 
ATOM      8  C   UNL     1      48.281  53.557  16.635  1.00  0.00    +0.048 A 
ATOM      9  C   UNL     1      47.896  54.873  16.361  1.00  0.00    +0.031 A 
ATOM     10  C   UNL     1      48.069  55.828  17.373  1.00  0.00    +0.048 A 
ENDROOT
BRANCH   4  11
ATOM     11  C   UNL     1      49.167  56.849  20.796  1.00  0.00    +0.040 C 
BRANCH  11  12
ATOM     12  C   UNL     1      50.503  57.599  20.880  1.00  0.00    +0.033 C 
BRANCH  12  13
ATOM     13  C   UNL     1      51.619  56.860  21.648  1.00  0.00    +0.114 C 
BRANCH  13  14
ATOM     14  C   UNL     1      52.936  57.653  21.582  1.00  0.00    +0.181 C 
BRANCH  14  15
ATOM     15  O   UNL     1      53.856  57.228  22.585  1.00  0.00    -0.394 OA
ATOM     16  H   UNL     1      54.725  57.624  22.391  1.00  0.00    +0.210 HD
ENDBRANCH  14  15
ENDBRANCH  13  14
BRANCH  13  17
ATOM     17  N   UNL     1      51.824  55.494  21.170  1.00  0.00    -0.331 N 
ATOM     18  C   UNL     1      51.627  54.367  21.914  1.00  0.00    +0.200 A 
ATOM     19  C   UNL     1      52.258  55.103  19.932  1.00  0.00    +0.121 A 
ATOM     20  N   UNL     1      51.896  53.285  21.222  1.00  0.00    -0.232 NA
ATOM     21  C   UNL     1      52.290  53.717  19.966  1.00  0.00    +0.145 A 
BRANCH  21  22
ATOM     22  C   UNL     1      52.666  52.793  18.889  1.00  0.00    +0.268 C 
ATOM     23  N   UNL     1      52.007  51.591  18.870  1.00  0.00    -0.364 N 
ATOM     24  O   UNL     1      53.495  53.041  18.019  1.00  0.00    -0.268 OA
ATOM     25  H   UNL     1      51.161  51.444  19.399  1.00  0.00    +0.160 HD
ATOM     26  H   UNL     1      52.174  51.014  18.058  1.00  0.00    +0.160 HD
ENDBRANCH  21  22
ENDBRANCH  13  17
ENDBRANCH  12  13
ENDBRANCH  11  12
ENDBRANCH   4  11
BRANCH   7  27
ATOM     27  O   UNL     1      49.120  51.860  17.973  1.00  0.00    -0.494 OA
BRANCH  27  28
ATOM     28  C   UNL     1      49.388  51.113  16.786  1.00  0.00    +0.230 C 
BRANCH  28  29
ATOM     29  C   UNL     1      49.230  49.615  17.048  1.00  0.00    +0.046 C 
BRANCH  29  30
ATOM     30  C   UNL     1      48.561  49.308  18.388  1.00  0.00    +0.039 C 
BRANCH  30  31
ATOM     31  C   UNL     1      47.135  48.831  18.265  1.00  0.00    -0.048 A 
ATOM     32  C   UNL     1      46.628  47.865  19.142  1.00  0.00    +0.004 A 
ATOM     33  C   UNL     1      46.296  49.348  17.267  1.00  0.00    +0.004 A 
ATOM     34  C   UNL     1      45.310  47.418  19.021  1.00  0.00    +0.000 A 
ATOM     35  C   UNL     1      44.980  48.900  17.145  1.00  0.00    +0.000 A 
ATOM     36  C   UNL     1      44.488  47.933  18.021  1.00  0.00    +0.000 A 
ENDBRANCH  30  31
ENDBRANCH  29  30
ENDBRANCH  28  29
ENDBRANCH  27  28
ENDBRANCH   7  27
TORSDOF 12
ENDMDL
MODEL 2
REMARK VINA RESULT:    -8.655      4.010      6.880
REMARK INTER + INTRA:         -16.519
REMARK INTER:                 -15.280
REMARK INTRA:                  -1.239
REMARK UNBOUND:                -2.046
REMARK SMILES Cn1cc(CC[C@H](CO)n2cnc(C(N)=O)c2)c2cc(OCCCc3ccccc3)ccc21
REMARK SMILES IDX 1 1 2 2 3 3 4 4 18 5 19 6 20 7 31 8 32 9 33 10 5 11 6 12
REMARK SMILES IDX 7 13 8 14 9 15 10 17 11 18 17 19 12 20 13 21 14 22 15 23
REMARK SMILES IDX 16 24 21 27 22 28 23 29 24 30 25 31 26 32 30 33 27 34 29 35
REMARK SMILES IDX 28 36
REMARK H PARENT 9 16 15 25 15 26
ROOT
ATOM      1  C   UNL     1      52.096  56.384  22.107  1.00  0.00    +0.149 C 
ATOM      2  N   UNL     1      50.784  56.466  21.506  1.00  0.00    -0.350 N 
ATOM      3  C   UNL     1      49.913  57.507  21.677  1.00  0.00    +0.090 A 
ATOM      4  C   UNL     1      48.765  57.240  20.957  1.00  0.00    -0.022 A 
ATOM      5  C   UNL     1      48.970  55.984  20.300  1.00  0.00    +0.006 A 
ATOM      6  C   UNL     1      48.187  55.202  19.419  1.00  0.00    +0.057 A 
ATOM      7  C   UNL     1      48.678  53.983  18.943  1.00  0.00    +0.120 A 
ATOM      8  C   UNL     1      49.940  53.544  19.342  1.00  0.00    +0.048 A 
ATOM      9  C   UNL     1      50.742  54.297  20.206  1.00  0.00    +0.031 A 
ATOM     10  C   UNL     1      50.233  55.517  20.671  1.00  0.00    +0.048 A 
ENDROOT
BRANCH   4  11
ATOM     11  C   UNL     1      47.553  58.113  20.881  1.00  0.00    +0.040 C 
BRANCH  11  12
ATOM     12  C   UNL     1      47.711  59.297  19.917  1.00  0.00    +0.033 C 
BRANCH  12  13
ATOM     13  C   UNL     1      46.510  59.536  18.978  1.00  0.00    +0.114 C 
BRANCH  13  14
ATOM     14  C   UNL     1      46.933  59.365  17.508  1.00  0.00    +0.181 C 
BRANCH  14  15
ATOM     15  O   UNL     1      47.676  58.165  17.311  1.00  0.00    -0.394 OA
ATOM     16  H   UNL     1      48.280  58.298  16.558  1.00  0.00    +0.210 HD
ENDBRANCH  14  15
ENDBRANCH  13  14
BRANCH  13  17
ATOM     17  N   UNL     1      45.888  60.843  19.178  1.00  0.00    -0.331 N 
ATOM     18  C   UNL     1      46.562  61.994  19.470  1.00  0.00    +0.200 A 
ATOM     19  C   UNL     1      44.554  61.145  19.134  1.00  0.00    +0.121 A 
ATOM     20  N   UNL     1      45.740  63.008  19.600  1.00  0.00    -0.232 NA
ATOM     21  C   UNL     1      44.467  62.506  19.386  1.00  0.00    +0.145 A 
BRANCH  21  22
ATOM     22  C   UNL     1      43.263  63.343  19.434  1.00  0.00    +0.268 C 
ATOM     23  N   UNL     1      42.128  62.738  19.910  1.00  0.00    -0.364 N 
ATOM     24  O   UNL     1      43.224  64.524  19.102  1.00  0.00    -0.268 OA
ATOM     25  H   UNL     1      42.166  61.867  20.416  1.00  0.00    +0.160 HD
ATOM     26  H   UNL     1      41.338  63.350  20.060  1.00  0.00    +0.160 HD
ENDBRANCH  21  22
ENDBRANCH  13  17
ENDBRANCH  12  13
ENDBRANCH  11  12
ENDBRANCH   4  11
BRANCH   7  27
ATOM     27  O   UNL     1      48.037  53.133  18.083  1.00  0.00    -0.494 OA
BRANCH  27  28
ATOM     28  C   UNL     1      48.651  52.814  16.834  1.00  0.00    +0.230 C 
BRANCH  28  29
ATOM     29  C   UNL     1      48.531  51.317  16.545  1.00  0.00    +0.046 C 
BRANCH  29  30
ATOM     30  C   UNL     1      48.490  50.463  17.813  1.00  0.00    +0.039 C 
BRANCH  30  31
ATOM     31  C   UNL     1      47.270  49.581  17.917  1.00  0.00    -0.048 A 
ATOM     32  C   UNL     1      46.172  49.780  17.071  1.00  0.00    +0.004 A 
ATOM     33  C   UNL     1      47.217  48.551  18.867  1.00  0.00    +0.004 A 
ATOM     34  C   UNL     1      45.040  48.970  17.175  1.00  0.00    +0.000 A 
ATOM     35  C   UNL     1      46.084  47.742  18.972  1.00  0.00    +0.000 A 
ATOM     36  C   UNL     1      44.995  47.953  18.127  1.00  0.00    +0.000 A 
ENDBRANCH  30  31
ENDBRANCH  29  30
ENDBRANCH  28  29
ENDBRANCH  27  28
ENDBRANCH   7  27
TORSDOF 12
ENDMDL
MODEL 3
REMARK VINA RESULT:    -8.548      2.434      5.156
REMARK INTER + INTRA:         -16.341
REMARK INTER:                 -15.118
REMARK INTRA:                  -1.223
REMARK UNBOUND:                -2.046
REMARK SMILES Cn1cc(CC[C@H](CO)n2cnc(C(N)=O)c2)c2cc(OCCCc3ccccc3)ccc21
REMARK SMILES IDX 1 1 2 2 3 3 4 4 18 5 19 6 20 7 31 8 32 9 33 10 5 11 6 12
REMARK SMILES IDX 7 13 8 14 9 15 10 17 11 18 17 19 12 20 13 21 14 22 15 23
REMARK SMILES IDX 16 24 21 27 22 28 23 29 24 30 25 31 26 32 30 33 27 34 29 35
REMARK SMILES IDX 28 36
REMARK H PARENT 9 16 15 25 15 26
ROOT
ATOM      1  C   UNL     1      53.518  57.227  20.561  1.00  0.00    +0.149 C 
ATOM      2  N   UNL     1      52.099  56.952  20.583  1.00  0.00    -0.350 N 
ATOM      3  C   UNL     1      51.152  57.794  21.099  1.00  0.00    +0.090 A 
ATOM      4  C   UNL     1      49.913  57.203  20.949  1.00  0.00    -0.022 A 
ATOM      5  C   UNL     1      50.128  55.953  20.284  1.00  0.00    +0.006 A 
ATOM      6  C   UNL     1      49.267  54.923  19.837  1.00  0.00    +0.057 A 
ATOM      7  C   UNL     1      49.799  53.791  19.211  1.00  0.00    +0.120 A 
ATOM      8  C   UNL     1      51.177  53.685  19.033  1.00  0.00    +0.048 A 
ATOM      9  C   UNL     1      52.054  54.689  19.457  1.00  0.00    +0.031 A 
ATOM     10  C   UNL     1      51.503  55.817  20.080  1.00  0.00    +0.048 A 
ENDROOT
BRANCH   4  11
ATOM     11  C   UNL     1      48.606  57.779  21.391  1.00  0.00    +0.040 C 
BRANCH  11  12
ATOM     12  C   UNL     1      47.535  57.785  20.292  1.00  0.00    +0.033 C 
BRANCH  12  13
ATOM     13  C   UNL     1      47.823  58.734  19.108  1.00  0.00    +0.114 C 
BRANCH  13  14
ATOM     14  C   UNL     1      46.980  60.016  19.226  1.00  0.00    +0.181 C 
BRANCH  14  15
ATOM     15  O   UNL     1      47.656  61.142  18.675  1.00  0.00    -0.394 OA
ATOM     16  H   UNL     1      47.474  61.171  17.718  1.00  0.00    +0.210 HD
ENDBRANCH  14  15
ENDBRANCH  13  14
BRANCH  13  17
ATOM     17  N   UNL     1      47.603  58.099  17.810  1.00  0.00    -0.331 N 
ATOM     18  C   UNL     1      48.267  56.996  17.356  1.00  0.00    +0.200 A 
ATOM     19  C   UNL     1      46.734  58.492  16.828  1.00  0.00    +0.121 A 
ATOM     20  N   UNL     1      47.863  56.657  16.155  1.00  0.00    -0.232 NA
ATOM     21  C   UNL     1      46.892  57.578  15.798  1.00  0.00    +0.145 A 
BRANCH  21  22
ATOM     22  C   UNL     1      46.182  57.529  14.514  1.00  0.00    +0.268 C 
ATOM     23  N   UNL     1      45.244  56.537  14.383  1.00  0.00    -0.364 N 
ATOM     24  O   UNL     1      46.362  58.316  13.591  1.00  0.00    -0.268 OA
ATOM     25  H   UNL     1      44.891  56.033  15.183  1.00  0.00    +0.160 HD
ATOM     26  H   UNL     1      44.671  56.585  13.552  1.00  0.00    +0.160 HD
ENDBRANCH  21  22
ENDBRANCH  13  17
ENDBRANCH  12  13
ENDBRANCH  11  12
ENDBRANCH   4  11
BRANCH   7  27
ATOM     27  O   UNL     1      49.088  52.728  18.723  1.00  0.00    -0.494 OA
BRANCH  27  28
ATOM     28  C   UNL     1      48.552  52.799  17.401  1.00  0.00    +0.230 C 
BRANCH  28  29
ATOM     29  C   UNL     1      48.634  51.433  16.717  1.00  0.00    +0.046 C 
BRANCH  29  30
ATOM     30  C   UNL     1      48.708  50.270  17.707  1.00  0.00    +0.039 C 
BRANCH  30  31
ATOM     31  C   UNL     1      47.425  49.484  17.825  1.00  0.00    -0.048 A 
ATOM     32  C   UNL     1      46.386  49.675  16.905  1.00  0.00    +0.004 A 
ATOM     33  C   UNL     1      47.252  48.554  18.860  1.00  0.00    +0.004 A 
ATOM     34  C   UNL     1      45.196  48.954  17.020  1.00  0.00    +0.000 A 
ATOM     35  C   UNL     1      46.062  47.836  18.976  1.00  0.00    +0.000 A 
ATOM     36  C   UNL     1      45.032  48.037  18.057  1.00  0.00    +0.000 A 
ENDBRANCH  30  31
ENDBRANCH  29  30
ENDBRANCH  28  29
ENDBRANCH  27  28
ENDBRANCH   7  27
TORSDOF 12
ENDMDL
MODEL 4
REMARK VINA RESULT:    -8.486      2.896      7.327
REMARK INTER + INTRA:         -16.236
REMARK INTER:                 -13.926
REMARK INTRA:                  -2.311
REMARK UNBOUND:                -2.046
REMARK SMILES Cn1cc(CC[C@H](CO)n2cnc(C(N)=O)c2)c2cc(OCCCc3ccccc3)ccc21
REMARK SMILES IDX 1 1 2 2 3 3 4 4 18 5 19 6 20 7 31 8 32 9 33 10 5 11 6 12
REMARK SMILES IDX 7 13 8 14 9 15 10 17 11 18 17 19 12 20 13 21 14 22 15 23
REMARK SMILES IDX 16 24 21 27 22 28 23 29 24 30 25 31 26 32 30 33 27 34 29 35
REMARK SMILES IDX 28 36
REMARK H PARENT 9 16 15 25 15 26
ROOT
ATOM      1  C   UNL     1      47.281  56.685  15.094  1.00  0.00    +0.149 C 
ATOM      2  N   UNL     1      47.721  55.849  16.189  1.00  0.00    -0.350 N 
ATOM      3  C   UNL     1      47.923  54.498  16.103  1.00  0.00    +0.090 A 
ATOM      4  C   UNL     1      48.337  54.039  17.338  1.00  0.00    -0.022 A 
ATOM      5  C   UNL     1      48.412  55.179  18.201  1.00  0.00    +0.006 A 
ATOM      6  C   UNL     1      48.788  55.359  19.553  1.00  0.00    +0.057 A 
ATOM      7  C   UNL     1      48.746  56.634  20.126  1.00  0.00    +0.120 A 
ATOM      8  C   UNL     1      48.330  57.722  19.359  1.00  0.00    +0.048 A 
ATOM      9  C   UNL     1      47.958  57.578  18.018  1.00  0.00    +0.031 A 
ATOM     10  C   UNL     1      48.009  56.294  17.461  1.00  0.00    +0.048 A 
ENDROOT
BRANCH   4  11
ATOM     11  C   UNL     1      48.653  52.620  17.686  1.00  0.00    +0.040 C 
BRANCH  11  12
ATOM     12  C   UNL     1      48.355  51.630  16.552  1.00  0.00    +0.033 C 
BRANCH  12  13
ATOM     13  C   UNL     1      49.042  50.254  16.690  1.00  0.00    +0.114 C 
BRANCH  13  14
ATOM     14  C   UNL     1      50.089  50.059  15.579  1.00  0.00    +0.181 C 
BRANCH  14  15
ATOM     15  O   UNL     1      51.398  50.407  16.024  1.00  0.00    -0.394 OA
ATOM     16  H   UNL     1      51.338  50.704  16.950  1.00  0.00    +0.210 HD
ENDBRANCH  14  15
ENDBRANCH  13  14
BRANCH  13  17
ATOM     17  N   UNL     1      48.090  49.145  16.691  1.00  0.00    -0.331 N 
ATOM     18  C   UNL     1      48.428  47.823  16.717  1.00  0.00    +0.200 A 
ATOM     19  C   UNL     1      46.724  49.222  16.646  1.00  0.00    +0.121 A 
ATOM     20  N   UNL     1      47.363  47.058  16.705  1.00  0.00    -0.232 NA
ATOM     21  C   UNL     1      46.273  47.911  16.667  1.00  0.00    +0.145 A 
BRANCH  21  22
ATOM     22  C   UNL     1      44.886  47.430  16.656  1.00  0.00    +0.268 C 
ATOM     23  N   UNL     1      44.555  46.529  17.635  1.00  0.00    -0.364 N 
ATOM     24  O   UNL     1      44.030  47.797  15.857  1.00  0.00    -0.268 OA
ATOM     25  H   UNL     1      45.138  46.391  18.446  1.00  0.00    +0.160 HD
ATOM     26  H   UNL     1      43.573  46.300  17.703  1.00  0.00    +0.160 HD
ENDBRANCH  21  22
ENDBRANCH  13  17
ENDBRANCH  12  13
ENDBRANCH  11  12
ENDBRANCH   4  11
BRANCH   7  27
ATOM     27  O   UNL     1      49.090  56.955  21.411  1.00  0.00    -0.494 OA
BRANCH  27  28
ATOM     28  C   UNL     1      50.330  57.620  21.654  1.00  0.00    +0.230 C 
BRANCH  28  29
ATOM     29  C   UNL     1      51.363  56.641  22.213  1.00  0.00    +0.046 C 
BRANCH  29  30
ATOM     30  C   UNL     1      52.230  55.999  21.129  1.00  0.00    +0.039 C 
BRANCH  30  31
ATOM     31  C   UNL     1      51.883  54.560  20.839  1.00  0.00    -0.048 A 
ATOM     32  C   UNL     1      51.245  53.772  21.807  1.00  0.00    +0.004 A 
ATOM     33  C   UNL     1      52.196  53.988  19.598  1.00  0.00    +0.004 A 
ATOM     34  C   UNL     1      50.933  52.438  21.541  1.00  0.00    +0.000 A 
ATOM     35  C   UNL     1      51.884  52.654  19.334  1.00  0.00    +0.000 A 
ATOM     36  C   UNL     1      51.254  51.878  20.306  1.00  0.00    +0.000 A 
ENDBRANCH  30  31
ENDBRANCH  29  30
ENDBRANCH  28  29
ENDBRANCH  27  28
ENDBRANCH   7  27
TORSDOF 12
ENDMDL
MODEL 5
REMARK VINA RESULT:    -8.450      3.985      9.207
REMARK INTER + INTRA:         -16.176
REMARK INTER:                 -15.050
REMARK INTRA:                  -1.126
REMARK UNBOUND:                -2.046
REMARK SMILES Cn1cc(CC[C@H](CO)n2cnc(C(N)=O)c2)c2cc(OCCCc3ccccc3)ccc21
REMARK SMILES IDX 1 1 2 2 3 3 4 4 18 5 19 6 20 7 31 8 32 9 33 10 5 11 6 12
REMARK SMILES IDX 7 13 8 14 9 15 10 17 11 18 17 19 12 20 13 21 14 22 15 23
REMARK SMILES IDX 16 24 21 27 22 28 23 29 24 30 25 31 26 32 30 33 27 34 29 35
REMARK SMILES IDX 28 36
REMARK H PARENT 9 16 15 25 15 26
ROOT
ATOM      1  C   UNL     1      50.744  50.039  14.808  1.00  0.00    +0.149 C 
ATOM      2  N   UNL     1      50.127  49.953  16.113  1.00  0.00    -0.350 N 
ATOM      3  C   UNL     1      48.886  49.430  16.354  1.00  0.00    +0.090 A 
ATOM      4  C   UNL     1      48.631  49.516  17.708  1.00  0.00    -0.022 A 
ATOM      5  C   UNL     1      49.791  50.097  18.313  1.00  0.00    +0.006 A 
ATOM      6  C   UNL     1      50.144  50.415  19.645  1.00  0.00    +0.057 A 
ATOM      7  C   UNL     1      51.385  51.000  19.919  1.00  0.00    +0.120 A 
ATOM      8  C   UNL     1      52.267  51.269  18.873  1.00  0.00    +0.048 A 
ATOM      9  C   UNL     1      51.951  50.961  17.547  1.00  0.00    +0.031 A 
ATOM     10  C   UNL     1      50.704  50.373  17.292  1.00  0.00    +0.048 A 
ENDROOT
BRANCH   4  11
ATOM     11  C   UNL     1      47.380  49.070  18.396  1.00  0.00    +0.040 C 
BRANCH  11  12
ATOM     12  C   UNL     1      46.097  49.490  17.667  1.00  0.00    +0.033 C 
BRANCH  12  13
ATOM     13  C   UNL     1      45.061  48.362  17.469  1.00  0.00    +0.114 C 
BRANCH  13  14
ATOM     14  C   UNL     1      45.404  47.153  18.357  1.00  0.00    +0.181 C 
BRANCH  14  15
ATOM     15  O   UNL     1      44.291  46.752  19.152  1.00  0.00    -0.394 OA
ATOM     16  H   UNL     1      44.157  45.794  19.029  1.00  0.00    +0.210 HD
ENDBRANCH  14  15
ENDBRANCH  13  14
BRANCH  13  17
ATOM     17  N   UNL     1      44.937  47.949  16.074  1.00  0.00    -0.331 N 
ATOM     18  C   UNL     1      44.094  46.977  15.617  1.00  0.00    +0.200 A 
ATOM     19  C   UNL     1      45.635  48.429  14.999  1.00  0.00    +0.121 A 
ATOM     20  N   UNL     1      44.204  46.820  14.320  1.00  0.00    -0.232 NA
ATOM     21  C   UNL     1      45.164  47.726  13.900  1.00  0.00    +0.145 A 
BRANCH  21  22
ATOM     22  C   UNL     1      45.565  47.867  12.495  1.00  0.00    +0.268 C 
ATOM     23  N   UNL     1      45.330  46.781  11.691  1.00  0.00    -0.364 N 
ATOM     24  O   UNL     1      46.063  48.879  12.013  1.00  0.00    -0.268 OA
ATOM     25  H   UNL     1      44.711  46.037  11.975  1.00  0.00    +0.160 HD
ATOM     26  H   UNL     1      45.489  46.926  10.704  1.00  0.00    +0.160 HD
ENDBRANCH  21  22
ENDBRANCH  13  17
ENDBRANCH  12  13
ENDBRANCH  11  12
ENDBRANCH   4  11
BRANCH   7  27
ATOM     27  O   UNL     1      51.859  51.349  21.155  1.00  0.00    -0.494 OA
BRANCH  27  28
ATOM     28  C   UNL     1      51.376  52.542  21.773  1.00  0.00    +0.230 C 
BRANCH  28  29
ATOM     29  C   UNL     1      51.628  53.752  20.872  1.00  0.00    +0.046 C 
BRANCH  29  30
ATOM     30  C   UNL     1      51.512  55.086  21.612  1.00  0.00    +0.039 C 
BRANCH  30  31
ATOM     31  C   UNL     1      50.302  55.898  21.223  1.00  0.00    -0.048 A 
ATOM     32  C   UNL     1      50.085  57.165  21.779  1.00  0.00    +0.004 A 
ATOM     33  C   UNL     1      49.373  55.395  20.300  1.00  0.00    +0.004 A 
ATOM     34  C   UNL     1      48.960  57.912  21.425  1.00  0.00    +0.000 A 
ATOM     35  C   UNL     1      48.248  56.141  19.948  1.00  0.00    +0.000 A 
ATOM     36  C   UNL     1      48.040  57.399  20.512  1.00  0.00    +0.000 A 
ENDBRANCH  30  31
ENDBRANCH  29  30
ENDBRANCH  28  29
ENDBRANCH  27  28
ENDBRANCH   7  27
TORSDOF 12
ENDMDL
