MODEL 1
REMARK VINA RESULT:    -7.886      0.000      0.000
REMARK INTER + INTRA:         -15.187
REMARK INTER:                 -13.649
REMARK INTRA:                  -1.539
REMARK UNBOUND:                -1.539
REMARK SMILES CCCCCCOc1ccc2ccn(CC[C@H](CO)n3cnc(C(N)=O)c3)c2c1
REMARK SMILES IDX 8 1 9 2 10 3 11 4 12 5 13 6 14 7 28 8 29 9 7 10 6 11 5 12
REMARK SMILES IDX 4 13 3 14 2 15 1 16 15 17 16 18 17 19 18 20 19 21 20 23
REMARK SMILES IDX 21 24 27 25 22 26 23 27 24 28 25 29 26 30
REMARK H PARENT 19 22 25 31 25 32
ROOT
ATOM      1  C   UNL     1      48.831  51.997  17.624  1.00  0.00    +0.121 A 
ATOM      2  C   UNL     1      47.938  52.132  16.565  1.00  0.00    +0.047 A 
ATOM      3  C   UNL     1      47.550  53.403  16.114  1.00  0.00    +0.014 A 
ATOM      4  C   UNL     1      48.066  54.554  16.738  1.00  0.00    -0.000 A 
ATOM      5  C   UNL     1      47.878  55.948  16.532  1.00  0.00    +0.028 A 
ATOM      6  C   UNL     1      48.646  56.613  17.457  1.00  0.00    +0.087 A 
ATOM      7  N   UNL     1      49.308  55.677  18.211  1.00  0.00    -0.347 N 
ATOM      8  C   UNL     1      48.958  54.405  17.803  1.00  0.00    +0.052 A 
ATOM      9  C   UNL     1      49.342  53.134  18.261  1.00  0.00    +0.073 A 
ENDROOT
BRANCH   1  10
ATOM     10  O   UNL     1      49.275  50.815  18.157  1.00  0.00    -0.494 OA
BRANCH  10  11
ATOM     11  C   UNL     1      48.734  49.592  17.654  1.00  0.00    +0.229 C 
BRANCH  11  12
ATOM     12  C   UNL     1      48.031  48.824  18.772  1.00  0.00    +0.042 C 
BRANCH  12  13
ATOM     13  C   UNL     1      46.598  48.414  18.427  1.00  0.00    +0.003 C 
BRANCH  13  14
ATOM     14  C   UNL     1      45.863  49.328  17.442  1.00  0.00    -0.000 C 
BRANCH  14  15
ATOM     15  C   UNL     1      45.270  48.580  16.248  1.00  0.00    -0.003 C 
ATOM     16  C   UNL     1      46.346  47.845  15.463  1.00  0.00    +0.004 C 
ENDBRANCH  14  15
ENDBRANCH  13  14
ENDBRANCH  12  13
ENDBRANCH  11  12
ENDBRANCH  10  11
ENDBRANCH   1  10
BRANCH   7  17
ATOM     17  C   UNL     1      50.235  56.010  19.280  1.00  0.00    +0.124 C 
BRANCH  17  18
ATOM     18  C   UNL     1      49.931  55.289  20.597  1.00  0.00    +0.050 C 
BRANCH  18  19
ATOM     19  C   UNL     1      51.177  54.811  21.372  1.00  0.00    +0.115 C 
BRANCH  19  20
ATOM     20  C   UNL     1      52.436  55.626  21.038  1.00  0.00    +0.181 C 
BRANCH  20  21
ATOM     21  O   UNL     1      52.735  56.517  22.110  1.00  0.00    -0.394 OA
ATOM     22  H   UNL     1      53.610  56.905  21.935  1.00  0.00    +0.210 HD
ENDBRANCH  20  21
ENDBRANCH  19  20
BRANCH  19  23
ATOM     23  N   UNL     1      51.421  53.384  21.124  1.00  0.00    -0.331 N 
ATOM     24  C   UNL     1      50.908  52.354  21.863  1.00  0.00    +0.200 A 
ATOM     25  C   UNL     1      52.183  52.838  20.128  1.00  0.00    +0.121 A 
ATOM     26  N   UNL     1      51.278  51.185  21.388  1.00  0.00    -0.232 NA
ATOM     27  C   UNL     1      52.087  51.471  20.297  1.00  0.00    +0.145 A 
BRANCH  27  28
ATOM     28  C   UNL     1      52.722  50.442  19.479  1.00  0.00    +0.268 C 
ATOM     29  N   UNL     1      53.165  49.373  20.203  1.00  0.00    -0.364 N 
ATOM     30  O   UNL     1      52.857  50.508  18.263  1.00  0.00    -0.268 OA
ATOM     31  H   UNL     1      53.043  49.382  21.208  1.00  0.00    +0.160 HD
ATOM     32  H   UNL     1      53.637  48.614  19.738  1.00  0.00    +0.160 HD
ENDBRANCH  27  28
ENDBRANCH  19  23
ENDBRANCH  18  19
ENDBRANCH  17  18
ENDBRANCH   7  17
TORSDOF 13
ENDMDL
MODEL 2
REMARK VINA RESULT:    -7.866      2.400      6.273
REMARK INTER + INTRA:         -15.152
REMARK INTER:                 -13.271
REMARK INTRA:                  -1.882
REMARK UNBOUND:                -1.539
REMARK SMILES CCCCCCOc1ccc2ccn(CC[C@H](CO)n3cnc(C(N)=O)c3)c2c1
REMARK SMILES IDX 8 1 9 2 10 3 11 4 12 5 13 6 14 7 28 8 29 9 7 10 6 11 5 12
REMARK SMILES IDX 4 13 3 14 2 15 1 16 15 17 16 18 17 19 18 20 19 21 20 23
REMARK SMILES IDX 21 24 27 25 22 26 23 27 24 28 25 29 26 30
REMARK H PARENT 19 22 25 31 25 32
ROOT
ATOM      1  C   UNL     1      48.779  55.014  18.041  1.00  0.00    +0.121 A 
ATOM      2  C   UNL     1      47.939  55.173  16.943  1.00  0.00    +0.047 A 
ATOM      3  C   UNL     1      47.616  54.081  16.125  1.00  0.00    +0.014 A 
ATOM      4  C   UNL     1      48.146  52.810  16.413  1.00  0.00    -0.000 A 
ATOM      5  C   UNL     1      48.024  51.534  15.799  1.00  0.00    +0.028 A 
ATOM      6  C   UNL     1      48.782  50.646  16.525  1.00  0.00    +0.087 A 
ATOM      7  N   UNL     1      49.352  51.332  17.569  1.00  0.00    -0.347 N 
ATOM      8  C   UNL     1      48.993  52.663  17.515  1.00  0.00    +0.052 A 
ATOM      9  C   UNL     1      49.324  53.758  18.332  1.00  0.00    +0.073 A 
ENDROOT
BRANCH   1  10
ATOM     10  O   UNL     1      49.173  56.003  18.904  1.00  0.00    -0.494 OA
BRANCH  10  11
ATOM     11  C   UNL     1      48.622  56.020  20.222  1.00  0.00    +0.229 C 
BRANCH  11  12
ATOM     12  C   UNL     1      48.679  57.431  20.803  1.00  0.00    +0.042 C 
BRANCH  12  13
ATOM     13  C   UNL     1      47.423  58.260  20.527  1.00  0.00    +0.003 C 
BRANCH  13  14
ATOM     14  C   UNL     1      47.498  59.203  19.323  1.00  0.00    -0.000 C 
BRANCH  14  15
ATOM     15  C   UNL     1      46.392  60.257  19.307  1.00  0.00    -0.003 C 
ATOM     16  C   UNL     1      46.966  61.663  19.223  1.00  0.00    +0.004 C 
ENDBRANCH  14  15
ENDBRANCH  13  14
ENDBRANCH  12  13
ENDBRANCH  11  12
ENDBRANCH  10  11
ENDBRANCH   1  10
BRANCH   7  17
ATOM     17  C   UNL     1      50.208  50.713  18.568  1.00  0.00    +0.124 C 
BRANCH  17  18
ATOM     18  C   UNL     1      51.700  50.974  18.338  1.00  0.00    +0.050 C 
BRANCH  18  19
ATOM     19  C   UNL     1      52.544  51.063  19.627  1.00  0.00    +0.115 C 
BRANCH  19  20
ATOM     20  C   UNL     1      52.330  49.864  20.564  1.00  0.00    +0.181 C 
BRANCH  20  21
ATOM     21  O   UNL     1      52.865  48.684  19.971  1.00  0.00    -0.394 OA
ATOM     22  H   UNL     1      53.297  48.170  20.675  1.00  0.00    +0.210 HD
ENDBRANCH  20  21
ENDBRANCH  19  20
BRANCH  19  23
ATOM     23  N   UNL     1      52.264  52.316  20.340  1.00  0.00    -0.331 N 
ATOM     24  C   UNL     1      51.741  52.406  21.601  1.00  0.00    +0.200 A 
ATOM     25  C   UNL     1      52.475  53.589  19.888  1.00  0.00    +0.121 A 
ATOM     26  N   UNL     1      51.625  53.657  21.990  1.00  0.00    -0.232 NA
ATOM     27  C   UNL     1      52.078  54.417  20.919  1.00  0.00    +0.145 A 
BRANCH  27  28
ATOM     28  C   UNL     1      52.109  55.876  20.931  1.00  0.00    +0.268 C 
ATOM     29  N   UNL     1      52.128  56.427  19.682  1.00  0.00    -0.364 N 
ATOM     30  O   UNL     1      52.120  56.562  21.947  1.00  0.00    -0.268 OA
ATOM     31  H   UNL     1      52.138  55.811  18.879  1.00  0.00    +0.160 HD
ATOM     32  H   UNL     1      52.170  57.428  19.575  1.00  0.00    +0.160 HD
ENDBRANCH  27  28
ENDBRANCH  19  23
ENDBRANCH  18  19
ENDBRANCH  17  18
ENDBRANCH   7  17
TORSDOF 13
ENDMDL
MODEL 3
REMARK VINA RESULT:    -7.781      3.502      7.887
REMARK INTER + INTRA:         -15.006
REMARK INTER:                 -13.782
REMARK INTRA:                  -1.224
REMARK UNBOUND:                -1.539
REMARK SMILES CCCCCCOc1ccc2ccn(CC[C@H](CO)n3cnc(C(N)=O)c3)c2c1
REMARK SMILES IDX 8 1 9 2 10 3 11 4 12 5 13 6 14 7 28 8 29 9 7 10 6 11 5 12
REMARK SMILES IDX 4 13 3 14 2 15 1 16 15 17 16 18 17 19 18 20 19 21 20 23
REMARK SMILES IDX 21 24 27 25 22 26 23 27 24 28 25 29 26 30
REMARK H PARENT 19 22 25 31 25 32
ROOT
ATOM      1  C   UNL     1      50.586  54.967  20.907  1.00  0.00    +0.121 A 
ATOM      2  C   UNL     1      51.316  54.542  22.013  1.00  0.00    +0.047 A 
ATOM      3  C   UNL     1      51.661  53.191  22.166  1.00  0.00    +0.014 A 
ATOM      4  C   UNL     1      51.265  52.253  21.195  1.00  0.00    -0.000 A 
ATOM      5  C   UNL     1      51.444  50.849  21.057  1.00  0.00    +0.028 A 
ATOM      6  C   UNL     1      50.826  50.463  19.892  1.00  0.00    +0.087 A 
ATOM      7  N   UNL     1      50.288  51.581  19.306  1.00  0.00    -0.347 N 
ATOM      8  C   UNL     1      50.528  52.691  20.091  1.00  0.00    +0.052 A 
ATOM      9  C   UNL     1      50.174  54.042  19.939  1.00  0.00    +0.073 A 
ENDROOT
BRANCH   1  10
ATOM     10  O   UNL     1      50.182  56.251  20.653  1.00  0.00    -0.494 OA
BRANCH  10  11
ATOM     11  C   UNL     1      50.257  57.213  21.707  1.00  0.00    +0.229 C 
BRANCH  11  12
ATOM     12  C   UNL     1      48.969  58.031  21.771  1.00  0.00    +0.042 C 
BRANCH  12  13
ATOM     13  C   UNL     1      47.967  57.686  20.667  1.00  0.00    +0.003 C 
BRANCH  13  14
ATOM     14  C   UNL     1      47.599  58.833  19.721  1.00  0.00    -0.000 C 
BRANCH  14  15
ATOM     15  C   UNL     1      47.494  58.402  18.258  1.00  0.00    -0.003 C 
ATOM     16  C   UNL     1      48.158  57.054  18.027  1.00  0.00    +0.004 C 
ENDBRANCH  14  15
ENDBRANCH  13  14
ENDBRANCH  12  13
ENDBRANCH  11  12
ENDBRANCH  10  11
ENDBRANCH   1  10
BRANCH   7  17
ATOM     17  C   UNL     1      49.572  51.564  18.040  1.00  0.00    +0.124 C 
BRANCH  17  18
ATOM     18  C   UNL     1      48.682  50.331  17.861  1.00  0.00    +0.050 C 
BRANCH  18  19
ATOM     19  C   UNL     1      48.951  49.523  16.574  1.00  0.00    +0.115 C 
BRANCH  19  20
ATOM     20  C   UNL     1      49.615  50.363  15.471  1.00  0.00    +0.181 C 
BRANCH  20  21
ATOM     21  O   UNL     1      50.965  49.943  15.289  1.00  0.00    -0.394 OA
ATOM     22  H   UNL     1      50.997  49.395  14.485  1.00  0.00    +0.210 HD
ENDBRANCH  20  21
ENDBRANCH  19  20
BRANCH  19  23
ATOM     23  N   UNL     1      47.706  48.928  16.071  1.00  0.00    -0.331 N 
ATOM     24  C   UNL     1      47.365  48.807  14.752  1.00  0.00    +0.200 A 
ATOM     25  C   UNL     1      46.688  48.393  16.811  1.00  0.00    +0.121 A 
ATOM     26  N   UNL     1      46.203  48.209  14.604  1.00  0.00    -0.232 NA
ATOM     27  C   UNL     1      45.760  47.946  15.893  1.00  0.00    +0.145 A 
BRANCH  27  28
ATOM     28  C   UNL     1      44.488  47.291  16.184  1.00  0.00    +0.268 C 
ATOM     29  N   UNL     1      44.431  46.749  17.435  1.00  0.00    -0.364 N 
ATOM     30  O   UNL     1      43.549  47.220  15.398  1.00  0.00    -0.268 OA
ATOM     31  H   UNL     1      45.245  46.822  18.034  1.00  0.00    +0.160 HD
ATOM     32  H   UNL     1      43.604  46.256  17.732  1.00  0.00    +0.160 HD
ENDBRANCH  27  28
ENDBRANCH  19  23
ENDBRANCH  18  19
ENDBRANCH  17  18
ENDBRANCH   7  17
TORSDOF 13
ENDMDL
MODEL 4
REMARK VINA RESULT:    -7.728      2.201      5.003
REMARK INTER + INTRA:         -14.914
REMARK INTER:                 -13.545
REMARK INTRA:                  -1.369
REMARK UNBOUND:                -1.539
REMARK SMILES CCCCCCOc1ccc2ccn(CC[C@H](CO)n3cnc(C(N)=O)c3)c2c1
REMARK SMILES IDX 8 1 9 2 10 3 11 4 12 5 13 6 14 7 28 8 29 9 7 10 6 11 5 12
REMARK SMILES IDX 4 13 3 14 2 15 1 16 15 17 16 18 17 19 18 20 19 21 20 23
REMARK SMILES IDX 21 24 27 25 22 26 23 27 24 28 25 29 26 30
REMARK H PARENT 19 22 25 31 25 32
ROOT
ATOM      1  C   UNL     1      49.729  49.882  17.230  1.00  0.00    +0.121 A 
ATOM      2  C   UNL     1      49.187  48.948  18.107  1.00  0.00    +0.047 A 
ATOM      3  C   UNL     1      49.574  48.924  19.455  1.00  0.00    +0.014 A 
ATOM      4  C   UNL     1      50.520  49.852  19.928  1.00  0.00    -0.000 A 
ATOM      5  C   UNL     1      51.114  50.086  21.198  1.00  0.00    +0.028 A 
ATOM      6  C   UNL     1      51.988  51.138  21.062  1.00  0.00    +0.087 A 
ATOM      7  N   UNL     1      51.940  51.564  19.758  1.00  0.00    -0.347 N 
ATOM      8  C   UNL     1      51.061  50.782  19.036  1.00  0.00    +0.052 A 
ATOM      9  C   UNL     1      50.681  50.803  17.684  1.00  0.00    +0.073 A 
ENDROOT
BRANCH   1  10
ATOM     10  O   UNL     1      49.438  49.997  15.896  1.00  0.00    -0.494 OA
BRANCH  10  11
ATOM     11  C   UNL     1      48.093  50.286  15.511  1.00  0.00    +0.229 C 
BRANCH  11  12
ATOM     12  C   UNL     1      47.489  49.101  14.760  1.00  0.00    +0.042 C 
BRANCH  12  13
ATOM     13  C   UNL     1      46.506  48.280  15.597  1.00  0.00    +0.003 C 
BRANCH  13  14
ATOM     14  C   UNL     1      45.737  49.055  16.670  1.00  0.00    -0.000 C 
BRANCH  14  15
ATOM     15  C   UNL     1      45.789  48.398  18.049  1.00  0.00    -0.003 C 
ATOM     16  C   UNL     1      44.480  47.698  18.380  1.00  0.00    +0.004 C 
ENDBRANCH  14  15
ENDBRANCH  13  14
ENDBRANCH  12  13
ENDBRANCH  11  12
ENDBRANCH  10  11
ENDBRANCH   1  10
BRANCH   7  17
ATOM     17  C   UNL     1      52.719  52.679  19.244  1.00  0.00    +0.124 C 
BRANCH  17  18
ATOM     18  C   UNL     1      51.859  53.838  18.733  1.00  0.00    +0.050 C 
BRANCH  18  19
ATOM     19  C   UNL     1      50.869  54.412  19.769  1.00  0.00    +0.115 C 
BRANCH  19  20
ATOM     20  C   UNL     1      49.630  55.048  19.120  1.00  0.00    +0.181 C 
BRANCH  20  21
ATOM     21  O   UNL     1      49.110  54.182  18.114  1.00  0.00    -0.394 OA
ATOM     22  H   UNL     1      48.733  53.404  18.561  1.00  0.00    +0.210 HD
ENDBRANCH  20  21
ENDBRANCH  19  20
BRANCH  19  23
ATOM     23  N   UNL     1      51.541  55.390  20.634  1.00  0.00    -0.331 N 
ATOM     24  C   UNL     1      51.600  55.326  21.999  1.00  0.00    +0.200 A 
ATOM     25  C   UNL     1      52.219  56.511  20.243  1.00  0.00    +0.121 A 
ATOM     26  N   UNL     1      52.291  56.326  22.502  1.00  0.00    -0.232 NA
ATOM     27  C   UNL     1      52.684  57.086  21.409  1.00  0.00    +0.145 A 
BRANCH  27  28
ATOM     28  C   UNL     1      53.474  58.308  21.526  1.00  0.00    +0.268 C 
ATOM     29  N   UNL     1      52.955  59.204  22.416  1.00  0.00    -0.364 N 
ATOM     30  O   UNL     1      54.503  58.532  20.899  1.00  0.00    -0.268 OA
ATOM     31  H   UNL     1      52.091  58.973  22.891  1.00  0.00    +0.160 HD
ATOM     32  H   UNL     1      53.411  60.091  22.559  1.00  0.00    +0.160 HD
ENDBRANCH  27  28
ENDBRANCH  19  23
ENDBRANCH  18  19
ENDBRANCH  17  18
ENDBRANCH   7  17
TORSDOF 13
ENDMDL
MODEL 5
REMARK VINA RESULT:    -7.630      3.265      7.332
REMARK INTER + INTRA:         -14.744
REMARK INTER:                 -13.879
REMARK INTRA:                  -0.866
REMARK UNBOUND:                -1.539
REMARK SMILES CCCCCCOc1ccc2ccn(CC[C@H](CO)n3cnc(C(N)=O)c3)c2c1
REMARK SMILES IDX 8 1 9 2 10 3 11 4 12 5 13 6 14 7 28 8 29 9 7 10 6 11 5 12
REMARK SMILES IDX 4 13 3 14 2 15 1 16 15 17 16 18 17 19 18 20 19 21 20 23
REMARK SMILES IDX 21 24 27 25 22 26 23 27 24 28 25 29 26 30
REMARK H PARENT 19 22 25 31 25 32
ROOT
ATOM      1  C   UNL     1      48.629  56.703  19.970  1.00  0.00    +0.121 A 
ATOM      2  C   UNL     1      49.118  57.606  20.909  1.00  0.00    +0.047 A 
ATOM      3  C   UNL     1      50.126  57.227  21.809  1.00  0.00    +0.014 A 
ATOM      4  C   UNL     1      50.648  55.922  21.765  1.00  0.00    -0.000 A 
ATOM      5  C   UNL     1      51.642  55.238  22.517  1.00  0.00    +0.028 A 
ATOM      6  C   UNL     1      51.729  53.957  22.026  1.00  0.00    +0.087 A 
ATOM      7  N   UNL     1      50.834  53.838  20.992  1.00  0.00    -0.347 N 
ATOM      8  C   UNL     1      50.146  55.022  20.821  1.00  0.00    +0.052 A 
ATOM      9  C   UNL     1      49.132  55.396  19.924  1.00  0.00    +0.073 A 
ENDROOT
BRANCH   1  10
ATOM     10  O   UNL     1      47.645  56.951  19.050  1.00  0.00    -0.494 OA
BRANCH  10  11
ATOM     11  C   UNL     1      47.998  57.610  17.832  1.00  0.00    +0.229 C 
BRANCH  11  12
ATOM     12  C   UNL     1      47.125  58.847  17.627  1.00  0.00    +0.042 C 
BRANCH  12  13
ATOM     13  C   UNL     1      47.324  59.923  18.696  1.00  0.00    +0.003 C 
BRANCH  13  14
ATOM     14  C   UNL     1      46.452  61.174  18.552  1.00  0.00    -0.000 C 
BRANCH  14  15
ATOM     15  C   UNL     1      46.615  62.163  19.705  1.00  0.00    -0.003 C 
ATOM     16  C   UNL     1      45.476  63.172  19.736  1.00  0.00    +0.004 C 
ENDBRANCH  14  15
ENDBRANCH  13  14
ENDBRANCH  12  13
ENDBRANCH  11  12
ENDBRANCH  10  11
ENDBRANCH   1  10
BRANCH   7  17
ATOM     17  C   UNL     1      50.660  52.624  20.212  1.00  0.00    +0.124 C 
BRANCH  17  18
ATOM     18  C   UNL     1      50.905  51.343  21.015  1.00  0.00    +0.050 C 
BRANCH  18  19
ATOM     19  C   UNL     1      51.304  50.117  20.168  1.00  0.00    +0.115 C 
BRANCH  19  20
ATOM     20  C   UNL     1      52.725  50.226  19.593  1.00  0.00    +0.181 C 
BRANCH  20  21
ATOM     21  O   UNL     1      53.576  49.266  20.215  1.00  0.00    -0.394 OA
ATOM     22  H   UNL     1      54.392  49.724  20.482  1.00  0.00    +0.210 HD
ENDBRANCH  20  21
ENDBRANCH  19  20
BRANCH  19  23
ATOM     23  N   UNL     1      50.338  49.905  19.082  1.00  0.00    -0.331 N 
ATOM     24  C   UNL     1      49.195  49.160  19.177  1.00  0.00    +0.200 A 
ATOM     25  C   UNL     1      50.400  50.408  17.812  1.00  0.00    +0.121 A 
ATOM     26  N   UNL     1      48.513  49.173  18.052  1.00  0.00    -0.232 NA
ATOM     27  C   UNL     1      49.261  49.951  17.179  1.00  0.00    +0.145 A 
BRANCH  27  28
ATOM     28  C   UNL     1      48.860  50.217  15.800  1.00  0.00    +0.268 C 
ATOM     29  N   UNL     1      49.364  49.316  14.907  1.00  0.00    -0.364 N 
ATOM     30  O   UNL     1      48.145  51.150  15.455  1.00  0.00    -0.268 OA
ATOM     31  H   UNL     1      49.966  48.577  15.249  1.00  0.00    +0.160 HD
ATOM     32  H   UNL     1      49.165  49.419  13.925  1.00  0.00    +0.160 HD
ENDBRANCH  27  28
ENDBRANCH  19  23
ENDBRANCH  18  19
ENDBRANCH  17  18
ENDBRANCH   7  17
TORSDOF 13
ENDMDL
