MODEL 1
REMARK VINA RESULT:    -9.471      0.000      0.000
REMARK INTER + INTRA:         -17.216
REMARK INTER:                 -15.838
REMARK INTRA:                  -1.377
REMARK UNBOUND:                -1.377
REMARK SMILES NC(=O)c1cn([C@@H](CO)CCn2ccc3ccc(OCCCc4ccccc4)cc32)cn1
REMARK SMILES IDX 12 1 13 2 14 3 15 4 16 5 17 6 18 7 29 8 30 9 11 10 10 11
REMARK SMILES IDX 7 12 6 13 4 14 5 15 32 16 31 17 2 18 1 19 3 20 8 23 9 24
REMARK SMILES IDX 19 26 20 27 21 28 22 29 23 30 24 31 28 32 25 33 27 34 26 35
REMARK H PARENT 1 21 1 22 9 25
ROOT
ATOM      1  N   UNL     1      48.735  57.145  19.911  1.00  0.00    -0.347 N 
ATOM      2  C   UNL     1      48.354  58.462  19.928  1.00  0.00    +0.087 A 
ATOM      3  C   UNL     1      47.881  58.780  18.676  1.00  0.00    +0.028 A 
ATOM      4  C   UNL     1      47.946  57.609  17.877  1.00  0.00    -0.000 A 
ATOM      5  C   UNL     1      47.599  57.318  16.545  1.00  0.00    +0.014 A 
ATOM      6  C   UNL     1      47.780  56.019  16.045  1.00  0.00    +0.047 A 
ATOM      7  C   UNL     1      48.300  55.010  16.853  1.00  0.00    +0.121 A 
ATOM      8  C   UNL     1      48.647  55.286  18.182  1.00  0.00    +0.073 A 
ATOM      9  C   UNL     1      48.471  56.590  18.676  1.00  0.00    +0.052 A 
ENDROOT
BRANCH   1  10
ATOM     10  C   UNL     1      49.312  56.445  21.047  1.00  0.00    +0.124 C 
BRANCH  10  11
ATOM     11  C   UNL     1      50.343  57.275  21.822  1.00  0.00    +0.050 C 
BRANCH  11  12
ATOM     12  C   UNL     1      51.685  56.559  22.077  1.00  0.00    +0.115 C 
BRANCH  12  13
ATOM     13  N   UNL     1      51.769  55.277  21.381  1.00  0.00    -0.331 N 
ATOM     14  C   UNL     1      52.020  53.745  19.838  1.00  0.00    +0.145 A 
ATOM     15  C   UNL     1      52.047  55.108  20.053  1.00  0.00    +0.121 A 
ATOM     16  N   UNL     1      51.713  53.090  21.023  1.00  0.00    -0.232 NA
ATOM     17  C   UNL     1      51.565  54.037  21.920  1.00  0.00    +0.200 A 
BRANCH  14  18
ATOM     18  C   UNL     1      52.266  53.051  18.576  1.00  0.00    +0.268 C 
ATOM     19  N   UNL     1      51.146  52.484  18.040  1.00  0.00    -0.364 N 
ATOM     20  O   UNL     1      53.362  52.971  18.032  1.00  0.00    -0.268 OA
ATOM     21  H   UNL     1      51.210  51.981  17.170  1.00  0.00    +0.160 HD
ATOM     22  H   UNL     1      50.264  52.578  18.530  1.00  0.00    +0.160 HD
ENDBRANCH  14  18
ENDBRANCH  12  13
BRANCH  12  23
ATOM     23  C   UNL     1      52.866  57.467  21.684  1.00  0.00    +0.181 C 
BRANCH  23  24
ATOM     24  O   UNL     1      53.916  57.411  22.645  1.00  0.00    -0.394 OA
ATOM     25  H   UNL     1      53.845  58.189  23.228  1.00  0.00    +0.210 HD
ENDBRANCH  23  24
ENDBRANCH  12  23
ENDBRANCH  11  12
ENDBRANCH  10  11
ENDBRANCH   1  10
BRANCH   7  26
ATOM     26  O   UNL     1      48.516  53.709  16.484  1.00  0.00    -0.494 OA
BRANCH  26  27
ATOM     27  C   UNL     1      47.757  52.682  17.123  1.00  0.00    +0.230 C 
BRANCH  27  28
ATOM     28  C   UNL     1      48.045  51.325  16.478  1.00  0.00    +0.046 C 
BRANCH  28  29
ATOM     29  C   UNL     1      48.279  50.216  17.505  1.00  0.00    +0.039 C 
BRANCH  29  30
ATOM     30  C   UNL     1      47.064  49.352  17.735  1.00  0.00    -0.048 A 
ATOM     31  C   UNL     1      45.981  49.397  16.846  1.00  0.00    +0.004 A 
ATOM     32  C   UNL     1      47.002  48.485  18.834  1.00  0.00    +0.004 A 
ATOM     33  C   UNL     1      44.864  48.586  17.047  1.00  0.00    +0.000 A 
ATOM     34  C   UNL     1      45.884  47.674  19.034  1.00  0.00    +0.000 A 
ATOM     35  C   UNL     1      44.816  47.723  18.141  1.00  0.00    +0.000 A 
ENDBRANCH  29  30
ENDBRANCH  28  29
ENDBRANCH  27  28
ENDBRANCH  26  27
ENDBRANCH   7  26
TORSDOF 12
ENDMDL
MODEL 2
REMARK VINA RESULT:    -9.082      3.488      8.785
REMARK INTER + INTRA:         -16.566
REMARK INTER:                 -15.424
REMARK INTRA:                  -1.142
REMARK UNBOUND:                -1.377
REMARK SMILES NC(=O)c1cn([C@@H](CO)CCn2ccc3ccc(OCCCc4ccccc4)cc32)cn1
REMARK SMILES IDX 12 1 13 2 14 3 15 4 16 5 17 6 18 7 29 8 30 9 11 10 10 11
REMARK SMILES IDX 7 12 6 13 4 14 5 15 32 16 31 17 2 18 1 19 3 20 8 23 9 24
REMARK SMILES IDX 19 26 20 27 21 28 22 29 23 30 24 31 28 32 25 33 27 34 26 35
REMARK H PARENT 1 21 1 22 9 25
ROOT
ATOM      1  N   UNL     1      50.350  53.019  19.600  1.00  0.00    -0.347 N 
ATOM      2  C   UNL     1      51.389  52.596  20.387  1.00  0.00    +0.087 A 
ATOM      3  C   UNL     1      51.698  53.612  21.262  1.00  0.00    +0.028 A 
ATOM      4  C   UNL     1      50.795  54.681  21.020  1.00  0.00    -0.000 A 
ATOM      5  C   UNL     1      50.615  55.952  21.595  1.00  0.00    +0.014 A 
ATOM      6  C   UNL     1      49.593  56.791  21.125  1.00  0.00    +0.047 A 
ATOM      7  C   UNL     1      48.751  56.380  20.094  1.00  0.00    +0.121 A 
ATOM      8  C   UNL     1      48.918  55.115  19.515  1.00  0.00    +0.073 A 
ATOM      9  C   UNL     1      49.948  54.282  19.984  1.00  0.00    +0.052 A 
ENDROOT
BRANCH   1  10
ATOM     10  C   UNL     1      49.757  52.230  18.534  1.00  0.00    +0.124 C 
BRANCH  10  11
ATOM     11  C   UNL     1      49.822  50.717  18.777  1.00  0.00    +0.050 C 
BRANCH  11  12
ATOM     12  C   UNL     1      49.380  49.852  17.579  1.00  0.00    +0.115 C 
BRANCH  12  13
ATOM     13  N   UNL     1      47.973  49.465  17.666  1.00  0.00    -0.331 N 
ATOM     14  C   UNL     1      46.125  48.369  18.081  1.00  0.00    +0.145 A 
ATOM     15  C   UNL     1      47.497  48.314  18.227  1.00  0.00    +0.121 A 
ATOM     16  N   UNL     1      45.770  49.539  17.423  1.00  0.00    -0.232 NA
ATOM     17  C   UNL     1      46.900  50.164  17.186  1.00  0.00    +0.200 A 
BRANCH  14  18
ATOM     18  C   UNL     1      45.155  47.374  18.531  1.00  0.00    +0.268 C 
ATOM     19  N   UNL     1      44.516  46.737  17.507  1.00  0.00    -0.364 N 
ATOM     20  O   UNL     1      44.918  47.119  19.707  1.00  0.00    -0.268 OA
ATOM     21  H   UNL     1      43.826  46.032  17.712  1.00  0.00    +0.160 HD
ATOM     22  H   UNL     1      44.746  46.985  16.552  1.00  0.00    +0.160 HD
ENDBRANCH  14  18
ENDBRANCH  12  13
BRANCH  12  23
ATOM     23  C   UNL     1      49.659  50.583  16.251  1.00  0.00    +0.181 C 
BRANCH  23  24
ATOM     24  O   UNL     1      50.935  50.239  15.719  1.00  0.00    -0.394 OA
ATOM     25  H   UNL     1      51.487  51.043  15.696  1.00  0.00    +0.210 HD
ENDBRANCH  23  24
ENDBRANCH  12  23
ENDBRANCH  11  12
ENDBRANCH  10  11
ENDBRANCH   1  10
BRANCH   7  26
ATOM     26  O   UNL     1      47.719  57.103  19.556  1.00  0.00    -0.494 OA
BRANCH  26  27
ATOM     27  C   UNL     1      47.832  57.553  18.205  1.00  0.00    +0.230 C 
BRANCH  27  28
ATOM     28  C   UNL     1      47.591  59.062  18.124  1.00  0.00    +0.046 C 
BRANCH  28  29
ATOM     29  C   UNL     1      47.316  59.695  19.489  1.00  0.00    +0.039 C 
BRANCH  29  30
ATOM     30  C   UNL     1      46.344  60.846  19.426  1.00  0.00    -0.048 A 
ATOM     31  C   UNL     1      45.004  60.626  19.081  1.00  0.00    +0.004 A 
ATOM     32  C   UNL     1      46.762  62.151  19.722  1.00  0.00    +0.004 A 
ATOM     33  C   UNL     1      44.098  61.687  19.040  1.00  0.00    +0.000 A 
ATOM     34  C   UNL     1      45.855  63.211  19.681  1.00  0.00    +0.000 A 
ATOM     35  C   UNL     1      44.524  62.979  19.341  1.00  0.00    +0.000 A 
ENDBRANCH  29  30
ENDBRANCH  28  29
ENDBRANCH  27  28
ENDBRANCH  26  27
ENDBRANCH   7  26
TORSDOF 12
ENDMDL
MODEL 3
REMARK VINA RESULT:    -9.034      3.027      8.061
REMARK INTER + INTRA:         -16.485
REMARK INTER:                 -15.395
REMARK INTRA:                  -1.090
REMARK UNBOUND:                -1.377
REMARK SMILES NC(=O)c1cn([C@@H](CO)CCn2ccc3ccc(OCCCc4ccccc4)cc32)cn1
REMARK SMILES IDX 12 1 13 2 14 3 15 4 16 5 17 6 18 7 29 8 30 9 11 10 10 11
REMARK SMILES IDX 7 12 6 13 4 14 5 15 32 16 31 17 2 18 1 19 3 20 8 23 9 24
REMARK SMILES IDX 19 26 20 27 21 28 22 29 23 30 24 31 28 32 25 33 27 34 26 35
REMARK H PARENT 1 21 1 22 9 25
ROOT
ATOM      1  N   UNL     1      50.667  54.170  20.653  1.00  0.00    -0.347 N 
ATOM      2  C   UNL     1      51.636  54.045  21.614  1.00  0.00    +0.087 A 
ATOM      3  C   UNL     1      51.677  55.221  22.328  1.00  0.00    +0.028 A 
ATOM      4  C   UNL     1      50.676  56.081  21.804  1.00  0.00    -0.000 A 
ATOM      5  C   UNL     1      50.243  57.380  22.125  1.00  0.00    +0.014 A 
ATOM      6  C   UNL     1      49.189  57.962  21.405  1.00  0.00    +0.047 A 
ATOM      7  C   UNL     1      48.563  57.268  20.372  1.00  0.00    +0.121 A 
ATOM      8  C   UNL     1      48.983  55.971  20.044  1.00  0.00    +0.073 A 
ATOM      9  C   UNL     1      50.044  55.397  20.764  1.00  0.00    +0.052 A 
ENDROOT
BRANCH   1  10
ATOM     10  C   UNL     1      50.342  53.141  19.679  1.00  0.00    +0.124 C 
BRANCH  10  11
ATOM     11  C   UNL     1      51.535  52.256  19.297  1.00  0.00    +0.050 C 
BRANCH  11  12
ATOM     12  C   UNL     1      51.372  50.765  19.656  1.00  0.00    +0.115 C 
BRANCH  12  13
ATOM     13  N   UNL     1      50.391  50.095  18.804  1.00  0.00    -0.331 N 
ATOM     14  C   UNL     1      49.168  49.496  17.091  1.00  0.00    +0.145 A 
ATOM     15  C   UNL     1      50.177  50.355  17.480  1.00  0.00    +0.121 A 
ATOM     16  N   UNL     1      48.762  48.730  18.174  1.00  0.00    -0.232 NA
ATOM     17  C   UNL     1      49.510  49.120  19.181  1.00  0.00    +0.200 A 
BRANCH  14  18
ATOM     18  C   UNL     1      48.584  49.377  15.757  1.00  0.00    +0.268 C 
ATOM     19  N   UNL     1      48.092  48.133  15.489  1.00  0.00    -0.364 N 
ATOM     20  O   UNL     1      48.530  50.290  14.940  1.00  0.00    -0.268 OA
ATOM     21  H   UNL     1      47.668  47.946  14.594  1.00  0.00    +0.160 HD
ATOM     22  H   UNL     1      48.163  47.412  16.198  1.00  0.00    +0.160 HD
ENDBRANCH  14  18
ENDBRANCH  12  13
BRANCH  12  23
ATOM     23  C   UNL     1      52.729  50.040  19.591  1.00  0.00    +0.181 C 
BRANCH  23  24
ATOM     24  O   UNL     1      52.613  48.670  19.964  1.00  0.00    -0.394 OA
ATOM     25  H   UNL     1      52.921  48.571  20.883  1.00  0.00    +0.210 HD
ENDBRANCH  23  24
ENDBRANCH  12  23
ENDBRANCH  11  12
ENDBRANCH  10  11
ENDBRANCH   1  10
BRANCH   7  26
ATOM     26  O   UNL     1      47.525  57.724  19.603  1.00  0.00    -0.494 OA
BRANCH  26  27
ATOM     27  C   UNL     1      47.701  57.789  18.187  1.00  0.00    +0.230 C 
BRANCH  27  28
ATOM     28  C   UNL     1      47.232  59.143  17.653  1.00  0.00    +0.046 C 
BRANCH  28  29
ATOM     29  C   UNL     1      47.625  60.310  18.561  1.00  0.00    +0.039 C 
BRANCH  29  30
ATOM     30  C   UNL     1      46.462  61.197  18.929  1.00  0.00    -0.048 A 
ATOM     31  C   UNL     1      46.675  62.401  19.614  1.00  0.00    +0.004 A 
ATOM     32  C   UNL     1      45.153  60.838  18.581  1.00  0.00    +0.004 A 
ATOM     33  C   UNL     1      45.602  63.232  19.939  1.00  0.00    +0.000 A 
ATOM     34  C   UNL     1      44.081  61.670  18.906  1.00  0.00    +0.000 A 
ATOM     35  C   UNL     1      44.305  62.866  19.583  1.00  0.00    +0.000 A 
ENDBRANCH  29  30
ENDBRANCH  28  29
ENDBRANCH  27  28
ENDBRANCH  26  27
ENDBRANCH   7  26
TORSDOF 12
ENDMDL
MODEL 4
REMARK VINA RESULT:    -9.030      1.655      6.585
REMARK INTER + INTRA:         -16.478
REMARK INTER:                 -14.697
REMARK INTRA:                  -1.781
REMARK UNBOUND:                -1.377
REMARK SMILES NC(=O)c1cn([C@@H](CO)CCn2ccc3ccc(OCCCc4ccccc4)cc32)cn1
REMARK SMILES IDX 12 1 13 2 14 3 15 4 16 5 17 6 18 7 29 8 30 9 11 10 10 11
REMARK SMILES IDX 7 12 6 13 4 14 5 15 32 16 31 17 2 18 1 19 3 20 8 23 9 24
REMARK SMILES IDX 19 26 20 27 21 28 22 29 23 30 24 31 28 32 25 33 27 34 26 35
REMARK H PARENT 1 21 1 22 9 25
ROOT
ATOM      1  N   UNL     1      50.341  50.040  19.351  1.00  0.00    -0.347 N 
ATOM      2  C   UNL     1      49.901  48.808  19.762  1.00  0.00    +0.087 A 
ATOM      3  C   UNL     1      48.691  48.567  19.152  1.00  0.00    +0.028 A 
ATOM      4  C   UNL     1      48.399  49.677  18.316  1.00  0.00    -0.000 A 
ATOM      5  C   UNL     1      47.333  49.992  17.453  1.00  0.00    +0.014 A 
ATOM      6  C   UNL     1      47.349  51.199  16.738  1.00  0.00    +0.047 A 
ATOM      7  C   UNL     1      48.410  52.092  16.870  1.00  0.00    +0.121 A 
ATOM      8  C   UNL     1      49.479  51.789  17.724  1.00  0.00    +0.073 A 
ATOM      9  C   UNL     1      49.454  50.583  18.444  1.00  0.00    +0.052 A 
ENDROOT
BRANCH   1  10
ATOM     10  C   UNL     1      51.577  50.659  19.801  1.00  0.00    +0.124 C 
BRANCH  10  11
ATOM     11  C   UNL     1      51.366  51.973  20.564  1.00  0.00    +0.050 C 
BRANCH  11  12
ATOM     12  C   UNL     1      51.813  53.238  19.805  1.00  0.00    +0.115 C 
BRANCH  12  13
ATOM     13  N   UNL     1      51.987  54.385  20.695  1.00  0.00    -0.331 N 
ATOM     14  C   UNL     1      52.492  56.360  21.490  1.00  0.00    +0.145 A 
ATOM     15  C   UNL     1      52.523  55.591  20.343  1.00  0.00    +0.121 A 
ATOM     16  N   UNL     1      51.955  55.621  22.535  1.00  0.00    -0.232 NA
ATOM     17  C   UNL     1      51.670  54.445  22.023  1.00  0.00    +0.200 A 
BRANCH  14  18
ATOM     18  C   UNL     1      52.946  57.741  21.632  1.00  0.00    +0.268 C 
ATOM     19  N   UNL     1      54.298  57.884  21.511  1.00  0.00    -0.364 N 
ATOM     20  O   UNL     1      52.206  58.696  21.841  1.00  0.00    -0.268 OA
ATOM     21  H   UNL     1      54.712  58.798  21.594  1.00  0.00    +0.160 HD
ATOM     22  H   UNL     1      54.866  57.062  21.339  1.00  0.00    +0.160 HD
ENDBRANCH  14  18
ENDBRANCH  12  13
BRANCH  12  23
ATOM     23  C   UNL     1      53.108  52.966  19.015  1.00  0.00    +0.181 C 
BRANCH  23  24
ATOM     24  O   UNL     1      52.848  52.783  17.626  1.00  0.00    -0.394 OA
ATOM     25  H   UNL     1      52.202  53.455  17.340  1.00  0.00    +0.210 HD
ENDBRANCH  23  24
ENDBRANCH  12  23
ENDBRANCH  11  12
ENDBRANCH  10  11
ENDBRANCH   1  10
BRANCH   7  26
ATOM     26  O   UNL     1      48.542  53.293  16.224  1.00  0.00    -0.494 OA
BRANCH  26  27
ATOM     27  C   UNL     1      47.433  54.193  16.221  1.00  0.00    +0.230 C 
BRANCH  27  28
ATOM     28  C   UNL     1      47.902  55.617  16.526  1.00  0.00    +0.046 C 
BRANCH  28  29
ATOM     29  C   UNL     1      48.965  55.672  17.625  1.00  0.00    +0.039 C 
BRANCH  29  30
ATOM     30  C   UNL     1      48.597  56.590  18.764  1.00  0.00    -0.048 A 
ATOM     31  C   UNL     1      48.975  56.279  20.077  1.00  0.00    +0.004 A 
ATOM     32  C   UNL     1      47.882  57.771  18.526  1.00  0.00    +0.004 A 
ATOM     33  C   UNL     1      48.652  57.136  21.130  1.00  0.00    +0.000 A 
ATOM     34  C   UNL     1      47.559  58.627  19.580  1.00  0.00    +0.000 A 
ATOM     35  C   UNL     1      47.945  58.310  20.881  1.00  0.00    +0.000 A 
ENDBRANCH  29  30
ENDBRANCH  28  29
ENDBRANCH  27  28
ENDBRANCH  26  27
ENDBRANCH   7  26
TORSDOF 12
ENDMDL
MODEL 5
REMARK VINA RESULT:    -8.987      3.409      8.873
REMARK INTER + INTRA:         -16.406
REMARK INTER:                 -15.462
REMARK INTRA:                  -0.944
REMARK UNBOUND:                -1.377
REMARK SMILES NC(=O)c1cn([C@@H](CO)CCn2ccc3ccc(OCCCc4ccccc4)cc32)cn1
REMARK SMILES IDX 12 1 13 2 14 3 15 4 16 5 17 6 18 7 29 8 30 9 11 10 10 11
REMARK SMILES IDX 7 12 6 13 4 14 5 15 32 16 31 17 2 18 1 19 3 20 8 23 9 24
REMARK SMILES IDX 19 26 20 27 21 28 22 29 23 30 24 31 28 32 25 33 27 34 26 35
REMARK H PARENT 1 21 1 22 9 25
ROOT
ATOM      1  N   UNL     1      49.028  50.781  18.225  1.00  0.00    -0.347 N 
ATOM      2  C   UNL     1      48.991  49.497  18.704  1.00  0.00    +0.087 A 
ATOM      3  C   UNL     1      50.141  49.284  19.429  1.00  0.00    +0.028 A 
ATOM      4  C   UNL     1      50.890  50.490  19.418  1.00  0.00    -0.000 A 
ATOM      5  C   UNL     1      52.118  50.879  19.984  1.00  0.00    +0.014 A 
ATOM      6  C   UNL     1      52.590  52.186  19.794  1.00  0.00    +0.047 A 
ATOM      7  C   UNL     1      51.857  53.108  19.049  1.00  0.00    +0.121 A 
ATOM      8  C   UNL     1      50.632  52.734  18.482  1.00  0.00    +0.073 A 
ATOM      9  C   UNL     1      50.167  51.421  18.670  1.00  0.00    +0.052 A 
ENDROOT
BRANCH   1  10
ATOM     10  C   UNL     1      47.997  51.372  17.388  1.00  0.00    +0.124 C 
BRANCH  10  11
ATOM     11  C   UNL     1      48.226  51.160  15.886  1.00  0.00    +0.050 C 
BRANCH  11  12
ATOM     12  C   UNL     1      48.523  49.702  15.480  1.00  0.00    +0.115 C 
BRANCH  12  13
ATOM     13  N   UNL     1      47.306  48.962  15.149  1.00  0.00    -0.331 N 
ATOM     14  C   UNL     1      45.439  47.829  15.296  1.00  0.00    +0.145 A 
ATOM     15  C   UNL     1      46.422  48.439  16.050  1.00  0.00    +0.121 A 
ATOM     16  N   UNL     1      45.732  47.968  13.946  1.00  0.00    -0.232 NA
ATOM     17  C   UNL     1      46.856  48.644  13.897  1.00  0.00    +0.200 A 
BRANCH  14  18
ATOM     18  C   UNL     1      44.257  47.132  15.795  1.00  0.00    +0.268 C 
ATOM     19  N   UNL     1      44.472  46.473  16.971  1.00  0.00    -0.364 N 
ATOM     20  O   UNL     1      43.168  47.123  15.232  1.00  0.00    -0.268 OA
ATOM     21  H   UNL     1      43.718  45.959  17.399  1.00  0.00    +0.160 HD
ATOM     22  H   UNL     1      45.391  46.510  17.395  1.00  0.00    +0.160 HD
ENDBRANCH  14  18
ENDBRANCH  12  13
BRANCH  12  23
ATOM     23  C   UNL     1      49.518  49.659  14.304  1.00  0.00    +0.181 C 
BRANCH  23  24
ATOM     24  O   UNL     1      50.754  50.283  14.638  1.00  0.00    -0.394 OA
ATOM     25  H   UNL     1      51.426  49.589  14.773  1.00  0.00    +0.210 HD
ENDBRANCH  23  24
ENDBRANCH  12  23
ENDBRANCH  11  12
ENDBRANCH  10  11
ENDBRANCH   1  10
BRANCH   7  26
ATOM     26  O   UNL     1      52.209  54.408  18.799  1.00  0.00    -0.494 OA
BRANCH  26  27
ATOM     27  C   UNL     1      52.608  55.231  19.895  1.00  0.00    +0.230 C 
BRANCH  27  28
ATOM     28  C   UNL     1      51.802  54.880  21.147  1.00  0.00    +0.046 C 
BRANCH  28  29
ATOM     29  C   UNL     1      51.292  56.114  21.893  1.00  0.00    +0.039 C 
BRANCH  29  30
ATOM     30  C   UNL     1      49.963  56.611  21.382  1.00  0.00    -0.048 A 
ATOM     31  C   UNL     1      49.445  57.837  21.824  1.00  0.00    +0.004 A 
ATOM     32  C   UNL     1      49.232  55.863  20.449  1.00  0.00    +0.004 A 
ATOM     33  C   UNL     1      48.225  58.308  21.337  1.00  0.00    +0.000 A 
ATOM     34  C   UNL     1      48.011  56.336  19.964  1.00  0.00    +0.000 A 
ATOM     35  C   UNL     1      47.509  57.558  20.407  1.00  0.00    +0.000 A 
ENDBRANCH  29  30
ENDBRANCH  28  29
ENDBRANCH  27  28
ENDBRANCH  26  27
ENDBRANCH   7  26
TORSDOF 12
ENDMDL
