MODEL 1
REMARK VINA RESULT:    -9.314      0.000      0.000
REMARK INTER + INTRA:         -17.540
REMARK INTER:                 -15.575
REMARK INTRA:                  -1.964
REMARK UNBOUND:                -1.964
REMARK SMILES Cc1ccc(CCCC(=O)Nc2ccc3ccn(CC[C@H](CO)n4cnc(C(N)=O)c4)c3c2)cc1
REMARK SMILES IDX 12 1 13 2 14 3 15 4 16 5 17 6 18 7 32 8 33 9 11 10 9 11
REMARK SMILES IDX 10 12 8 14 7 15 6 16 5 17 2 18 3 19 35 20 4 21 34 22 1 23
REMARK SMILES IDX 19 24 20 25 21 26 22 27 23 28 24 30 25 31 31 32 26 33 27 34
REMARK SMILES IDX 28 35 29 36 30 37
REMARK H PARENT 11 13 23 29 29 38 29 39
ROOT
ATOM      1  C   UNL     1      48.561  54.780  17.269  1.00  0.00    +0.043 A 
ATOM      2  C   UNL     1      47.998  55.484  16.207  1.00  0.00    +0.027 A 
ATOM      3  C   UNL     1      47.615  56.826  16.349  1.00  0.00    +0.012 A 
ATOM      4  C   UNL     1      47.795  57.477  17.582  1.00  0.00    -0.000 A 
ATOM      5  C   UNL     1      47.536  58.795  18.043  1.00  0.00    +0.028 A 
ATOM      6  C   UNL     1      47.931  58.863  19.358  1.00  0.00    +0.087 A 
ATOM      7  N   UNL     1      48.392  57.624  19.726  1.00  0.00    -0.347 N 
ATOM      8  C   UNL     1      48.351  56.763  18.647  1.00  0.00    +0.050 A 
ATOM      9  C   UNL     1      48.746  55.419  18.507  1.00  0.00    +0.053 A 
ENDROOT
BRANCH   1  10
ATOM     10  N   UNL     1      48.968  53.431  17.188  1.00  0.00    -0.326 N 
ATOM     11  C   UNL     1      48.165  52.304  17.117  1.00  0.00    +0.224 C 
ATOM     12  O   UNL     1      46.941  52.275  17.115  1.00  0.00    -0.275 OA
ATOM     13  H   UNL     1      49.967  53.272  17.169  1.00  0.00    +0.169 HD
BRANCH  11  14
ATOM     14  C   UNL     1      49.006  51.037  17.051  1.00  0.00    +0.101 C 
BRANCH  14  15
ATOM     15  C   UNL     1      49.198  50.394  18.426  1.00  0.00    +0.015 C 
BRANCH  15  16
ATOM     16  C   UNL     1      48.790  48.918  18.457  1.00  0.00    +0.036 C 
BRANCH  16  17
ATOM     17  C   UNL     1      47.620  48.589  17.563  1.00  0.00    -0.048 A 
ATOM     18  C   UNL     1      45.431  47.944  15.906  1.00  0.00    -0.051 A 
ATOM     19  C   UNL     1      46.735  47.625  15.516  1.00  0.00    +0.004 A 
ATOM     20  C   UNL     1      45.230  48.606  17.123  1.00  0.00    +0.004 A 
ATOM     21  C   UNL     1      47.820  47.943  16.336  1.00  0.00    +0.004 A 
ATOM     22  C   UNL     1      46.314  48.923  17.945  1.00  0.00    +0.004 A 
ATOM     23  C   UNL     1      44.276  47.626  15.004  1.00  0.00    +0.044 C 
ENDBRANCH  16  17
ENDBRANCH  15  16
ENDBRANCH  14  15
ENDBRANCH  11  14
ENDBRANCH   1  10
BRANCH   7  24
ATOM     24  C   UNL     1      48.860  57.293  21.063  1.00  0.00    +0.124 C 
BRANCH  24  25
ATOM     25  C   UNL     1      50.378  57.145  21.169  1.00  0.00    +0.050 C 
BRANCH  25  26
ATOM     26  C   UNL     1      50.860  55.813  21.775  1.00  0.00    +0.115 C 
BRANCH  26  27
ATOM     27  C   UNL     1      51.812  55.960  22.975  1.00  0.00    +0.181 C 
BRANCH  27  28
ATOM     28  O   UNL     1      52.976  56.705  22.627  1.00  0.00    -0.394 OA
ATOM     29  H   UNL     1      53.720  56.329  23.135  1.00  0.00    +0.210 HD
ENDBRANCH  27  28
ENDBRANCH  26  27
BRANCH  26  30
ATOM     30  N   UNL     1      51.459  54.979  20.727  1.00  0.00    -0.331 N 
ATOM     31  C   UNL     1      51.980  55.410  19.538  1.00  0.00    +0.200 A 
ATOM     32  C   UNL     1      51.565  53.615  20.757  1.00  0.00    +0.121 A 
ATOM     33  N   UNL     1      52.425  54.408  18.814  1.00  0.00    -0.232 NA
ATOM     34  C   UNL     1      52.171  53.267  19.566  1.00  0.00    +0.145 A 
BRANCH  34  35
ATOM     35  C   UNL     1      52.510  51.920  19.117  1.00  0.00    +0.268 C 
ATOM     36  N   UNL     1      52.708  51.831  17.769  1.00  0.00    -0.364 N 
ATOM     37  O   UNL     1      52.615  50.948  19.855  1.00  0.00    -0.268 OA
ATOM     38  H   UNL     1      52.986  50.953  17.363  1.00  0.00    +0.160 HD
ATOM     39  H   UNL     1      52.635  52.672  17.208  1.00  0.00    +0.160 HD
ENDBRANCH  34  35
ENDBRANCH  26  30
ENDBRANCH  25  26
ENDBRANCH  24  25
ENDBRANCH   7  24
TORSDOF 12
ENDMDL
MODEL 2
REMARK VINA RESULT:    -9.244      1.499      1.950
REMARK INTER + INTRA:         -17.422
REMARK INTER:                 -15.151
REMARK INTRA:                  -2.272
REMARK UNBOUND:                -1.964
REMARK SMILES Cc1ccc(CCCC(=O)Nc2ccc3ccn(CC[C@H](CO)n4cnc(C(N)=O)c4)c3c2)cc1
REMARK SMILES IDX 12 1 13 2 14 3 15 4 16 5 17 6 18 7 32 8 33 9 11 10 9 11
REMARK SMILES IDX 10 12 8 14 7 15 6 16 5 17 2 18 3 19 35 20 4 21 34 22 1 23
REMARK SMILES IDX 19 24 20 25 21 26 22 27 23 28 24 30 25 31 31 32 26 33 27 34
REMARK SMILES IDX 28 35 29 36 30 37
REMARK H PARENT 11 13 23 29 29 38 29 39
ROOT
ATOM      1  C   UNL     1      48.670  52.925  17.915  1.00  0.00    +0.043 A 
ATOM      2  C   UNL     1      48.200  53.191  16.631  1.00  0.00    +0.027 A 
ATOM      3  C   UNL     1      47.916  54.502  16.220  1.00  0.00    +0.012 A 
ATOM      4  C   UNL     1      48.103  55.569  17.116  1.00  0.00    -0.000 A 
ATOM      5  C   UNL     1      47.930  56.976  17.016  1.00  0.00    +0.028 A 
ATOM      6  C   UNL     1      48.284  57.527  18.225  1.00  0.00    +0.087 A 
ATOM      7  N   UNL     1      48.635  56.505  19.070  1.00  0.00    -0.347 N 
ATOM      8  C   UNL     1      48.566  55.296  18.405  1.00  0.00    +0.050 A 
ATOM      9  C   UNL     1      48.861  53.983  18.819  1.00  0.00    +0.053 A 
ENDROOT
BRANCH   1  10
ATOM     10  N   UNL     1      48.975  51.629  18.386  1.00  0.00    -0.326 N 
ATOM     11  C   UNL     1      50.183  50.956  18.302  1.00  0.00    +0.224 C 
ATOM     12  O   UNL     1      51.218  51.369  17.792  1.00  0.00    -0.275 OA
ATOM     13  H   UNL     1      48.221  51.141  18.851  1.00  0.00    +0.169 HD
BRANCH  11  14
ATOM     14  C   UNL     1      50.084  49.574  18.928  1.00  0.00    +0.101 C 
BRANCH  14  15
ATOM     15  C   UNL     1      48.744  48.897  18.637  1.00  0.00    +0.015 C 
BRANCH  15  16
ATOM     16  C   UNL     1      48.840  47.829  17.542  1.00  0.00    +0.036 C 
BRANCH  16  17
ATOM     17  C   UNL     1      47.675  47.832  16.583  1.00  0.00    -0.048 A 
ATOM     18  C   UNL     1      45.511  47.812  14.775  1.00  0.00    -0.051 A 
ATOM     19  C   UNL     1      46.694  48.489  14.459  1.00  0.00    +0.004 A 
ATOM     20  C   UNL     1      45.411  47.160  16.009  1.00  0.00    +0.004 A 
ATOM     21  C   UNL     1      47.766  48.499  15.354  1.00  0.00    +0.004 A 
ATOM     22  C   UNL     1      46.485  47.167  16.904  1.00  0.00    +0.004 A 
ATOM     23  C   UNL     1      44.354  47.833  13.821  1.00  0.00    +0.044 C 
ENDBRANCH  16  17
ENDBRANCH  15  16
ENDBRANCH  14  15
ENDBRANCH  11  14
ENDBRANCH   1  10
BRANCH   7  24
ATOM     24  C   UNL     1      49.031  56.694  20.456  1.00  0.00    +0.124 C 
BRANCH  24  25
ATOM     25  C   UNL     1      50.286  57.550  20.633  1.00  0.00    +0.050 C 
BRANCH  25  26
ATOM     26  C   UNL     1      51.365  56.941  21.549  1.00  0.00    +0.115 C 
BRANCH  26  27
ATOM     27  C   UNL     1      52.630  57.803  21.713  1.00  0.00    +0.181 C 
BRANCH  27  28
ATOM     28  O   UNL     1      53.571  57.182  22.585  1.00  0.00    -0.394 OA
ATOM     29  H   UNL     1      53.741  56.287  22.235  1.00  0.00    +0.210 HD
ENDBRANCH  27  28
ENDBRANCH  26  27
BRANCH  26  30
ATOM     30  N   UNL     1      51.704  55.591  21.086  1.00  0.00    -0.331 N 
ATOM     31  C   UNL     1      52.238  55.253  19.873  1.00  0.00    +0.200 A 
ATOM     32  C   UNL     1      51.509  54.434  21.790  1.00  0.00    +0.121 A 
ATOM     33  N   UNL     1      52.410  53.954  19.765  1.00  0.00    -0.232 NA
ATOM     34  C   UNL     1      51.954  53.421  20.965  1.00  0.00    +0.145 A 
BRANCH  34  35
ATOM     35  C   UNL     1      51.961  51.992  21.259  1.00  0.00    +0.268 C 
ATOM     36  N   UNL     1      50.978  51.610  22.126  1.00  0.00    -0.364 N 
ATOM     37  O   UNL     1      52.758  51.189  20.786  1.00  0.00    -0.268 OA
ATOM     38  H   UNL     1      50.872  50.637  22.362  1.00  0.00    +0.160 HD
ATOM     39  H   UNL     1      50.329  52.309  22.466  1.00  0.00    +0.160 HD
ENDBRANCH  34  35
ENDBRANCH  26  30
ENDBRANCH  25  26
ENDBRANCH  24  25
ENDBRANCH   7  24
TORSDOF 12
ENDMDL
MODEL 3
REMARK VINA RESULT:    -9.055      2.895      8.798
REMARK INTER + INTRA:         -17.107
REMARK INTER:                 -15.864
REMARK INTRA:                  -1.243
REMARK UNBOUND:                -1.964
REMARK SMILES Cc1ccc(CCCC(=O)Nc2ccc3ccn(CC[C@H](CO)n4cnc(C(N)=O)c4)c3c2)cc1
REMARK SMILES IDX 12 1 13 2 14 3 15 4 16 5 17 6 18 7 32 8 33 9 11 10 9 11
REMARK SMILES IDX 10 12 8 14 7 15 6 16 5 17 2 18 3 19 35 20 4 21 34 22 1 23
REMARK SMILES IDX 19 24 20 25 21 26 22 27 23 28 24 30 25 31 31 32 26 33 27 34
REMARK SMILES IDX 28 35 29 36 30 37
REMARK H PARENT 11 13 23 29 29 38 29 39
ROOT
ATOM      1  C   UNL     1      51.358  53.109  20.405  1.00  0.00    +0.043 A 
ATOM      2  C   UNL     1      51.989  52.300  21.347  1.00  0.00    +0.027 A 
ATOM      3  C   UNL     1      51.789  50.911  21.362  1.00  0.00    +0.012 A 
ATOM      4  C   UNL     1      50.935  50.320  20.414  1.00  0.00    -0.000 A 
ATOM      5  C   UNL     1      50.538  48.982  20.151  1.00  0.00    +0.028 A 
ATOM      6  C   UNL     1      49.680  49.004  19.078  1.00  0.00    +0.087 A 
ATOM      7  N   UNL     1      49.512  50.311  18.696  1.00  0.00    -0.347 N 
ATOM      8  C   UNL     1      50.297  51.137  19.478  1.00  0.00    +0.050 A 
ATOM      9  C   UNL     1      50.502  52.530  19.453  1.00  0.00    +0.053 A 
ENDROOT
BRANCH   1  10
ATOM     10  N   UNL     1      51.520  54.509  20.339  1.00  0.00    -0.326 N 
ATOM     11  C   UNL     1      51.833  55.379  21.371  1.00  0.00    +0.224 C 
ATOM     12  O   UNL     1      52.022  55.085  22.545  1.00  0.00    -0.275 OA
ATOM     13  H   UNL     1      51.406  54.923  19.423  1.00  0.00    +0.169 HD
BRANCH  11  14
ATOM     14  C   UNL     1      51.906  56.815  20.874  1.00  0.00    +0.101 C 
BRANCH  14  15
ATOM     15  C   UNL     1      50.862  57.715  21.536  1.00  0.00    +0.015 C 
BRANCH  15  16
ATOM     16  C   UNL     1      49.441  57.149  21.446  1.00  0.00    +0.036 C 
BRANCH  16  17
ATOM     17  C   UNL     1      48.762  57.412  20.124  1.00  0.00    -0.048 A 
ATOM     18  C   UNL     1      47.521  57.920  17.644  1.00  0.00    -0.051 A 
ATOM     19  C   UNL     1      47.420  58.842  18.691  1.00  0.00    +0.004 A 
ATOM     20  C   UNL     1      48.232  56.733  17.852  1.00  0.00    +0.004 A 
ATOM     21  C   UNL     1      48.035  58.592  19.919  1.00  0.00    +0.004 A 
ATOM     22  C   UNL     1      48.850  56.482  19.080  1.00  0.00    +0.004 A 
ATOM     23  C   UNL     1      46.831  58.184  16.338  1.00  0.00    +0.044 C 
ENDBRANCH  16  17
ENDBRANCH  15  16
ENDBRANCH  14  15
ENDBRANCH  11  14
ENDBRANCH   1  10
BRANCH   7  24
ATOM     24  C   UNL     1      48.639  50.739  17.615  1.00  0.00    +0.124 C 
BRANCH  24  25
ATOM     25  C   UNL     1      49.309  50.744  16.240  1.00  0.00    +0.050 C 
BRANCH  25  26
ATOM     26  C   UNL     1      49.510  49.352  15.610  1.00  0.00    +0.115 C 
BRANCH  26  27
ATOM     27  C   UNL     1      50.338  49.348  14.313  1.00  0.00    +0.181 C 
BRANCH  27  28
ATOM     28  O   UNL     1      51.735  49.403  14.588  1.00  0.00    -0.394 OA
ATOM     29  H   UNL     1      52.200  49.121  13.778  1.00  0.00    +0.210 HD
ENDBRANCH  27  28
ENDBRANCH  26  27
BRANCH  26  30
ATOM     30  N   UNL     1      48.208  48.707  15.406  1.00  0.00    -0.331 N 
ATOM     31  C   UNL     1      47.284  49.018  14.447  1.00  0.00    +0.200 A 
ATOM     32  C   UNL     1      47.688  47.701  16.173  1.00  0.00    +0.121 A 
ATOM     33  N   UNL     1      46.213  48.262  14.544  1.00  0.00    -0.232 NA
ATOM     34  C   UNL     1      46.450  47.425  15.629  1.00  0.00    +0.145 A 
BRANCH  34  35
ATOM     35  C   UNL     1      45.495  46.422  16.088  1.00  0.00    +0.268 C 
ATOM     36  N   UNL     1      44.965  46.698  17.316  1.00  0.00    -0.364 N 
ATOM     37  O   UNL     1      45.178  45.422  15.454  1.00  0.00    -0.268 OA
ATOM     38  H   UNL     1      44.265  46.088  17.705  1.00  0.00    +0.160 HD
ATOM     39  H   UNL     1      45.241  47.552  17.786  1.00  0.00    +0.160 HD
ENDBRANCH  34  35
ENDBRANCH  26  30
ENDBRANCH  25  26
ENDBRANCH  24  25
ENDBRANCH   7  24
TORSDOF 12
ENDMDL
MODEL 4
REMARK VINA RESULT:    -9.024      3.386      9.493
REMARK INTER + INTRA:         -17.054
REMARK INTER:                 -15.847
REMARK INTRA:                  -1.208
REMARK UNBOUND:                -1.964
REMARK SMILES Cc1ccc(CCCC(=O)Nc2ccc3ccn(CC[C@H](CO)n4cnc(C(N)=O)c4)c3c2)cc1
REMARK SMILES IDX 12 1 13 2 14 3 15 4 16 5 17 6 18 7 32 8 33 9 11 10 9 11
REMARK SMILES IDX 10 12 8 14 7 15 6 16 5 17 2 18 3 19 35 20 4 21 34 22 1 23
REMARK SMILES IDX 19 24 20 25 21 26 22 27 23 28 24 30 25 31 31 32 26 33 27 34
REMARK SMILES IDX 28 35 29 36 30 37
REMARK H PARENT 11 13 23 29 29 38 29 39
ROOT
ATOM      1  C   UNL     1      50.066  55.723  19.366  1.00  0.00    +0.043 A 
ATOM      2  C   UNL     1      51.407  55.962  19.657  1.00  0.00    +0.027 A 
ATOM      3  C   UNL     1      52.376  54.964  19.481  1.00  0.00    +0.012 A 
ATOM      4  C   UNL     1      51.994  53.696  19.009  1.00  0.00    -0.000 A 
ATOM      5  C   UNL     1      52.707  52.503  18.715  1.00  0.00    +0.028 A 
ATOM      6  C   UNL     1      51.798  51.573  18.267  1.00  0.00    +0.087 A 
ATOM      7  N   UNL     1      50.552  52.145  18.309  1.00  0.00    -0.347 N 
ATOM      8  C   UNL     1      50.647  53.458  18.728  1.00  0.00    +0.050 A 
ATOM      9  C   UNL     1      49.671  54.460  18.894  1.00  0.00    +0.053 A 
ENDROOT
BRANCH   1  10
ATOM     10  N   UNL     1      49.045  56.686  19.520  1.00  0.00    -0.326 N 
ATOM     11  C   UNL     1      48.691  57.373  20.670  1.00  0.00    +0.224 C 
ATOM     12  O   UNL     1      49.205  57.264  21.777  1.00  0.00    -0.275 OA
ATOM     13  H   UNL     1      48.518  56.907  18.685  1.00  0.00    +0.169 HD
BRANCH  11  14
ATOM     14  C   UNL     1      47.528  58.318  20.406  1.00  0.00    +0.101 C 
BRANCH  14  15
ATOM     15  C   UNL     1      47.507  58.827  18.964  1.00  0.00    +0.015 C 
BRANCH  15  16
ATOM     16  C   UNL     1      47.687  60.345  18.864  1.00  0.00    +0.036 C 
BRANCH  16  17
ATOM     17  C   UNL     1      46.411  61.126  19.064  1.00  0.00    -0.048 A 
ATOM     18  C   UNL     1      44.031  62.599  19.409  1.00  0.00    -0.051 A 
ATOM     19  C   UNL     1      45.264  63.144  19.781  1.00  0.00    +0.004 A 
ATOM     20  C   UNL     1      43.995  61.303  18.881  1.00  0.00    +0.004 A 
ATOM     21  C   UNL     1      46.443  62.416  19.610  1.00  0.00    +0.004 A 
ATOM     22  C   UNL     1      45.174  60.574  18.707  1.00  0.00    +0.004 A 
ATOM     23  C   UNL     1      42.767  63.376  19.625  1.00  0.00    +0.044 C 
ENDBRANCH  16  17
ENDBRANCH  15  16
ENDBRANCH  14  15
ENDBRANCH  11  14
ENDBRANCH   1  10
BRANCH   7  24
ATOM     24  C   UNL     1      49.325  51.452  17.949  1.00  0.00    +0.124 C 
BRANCH  24  25
ATOM     25  C   UNL     1      49.183  51.182  16.450  1.00  0.00    +0.050 C 
BRANCH  25  26
ATOM     26  C   UNL     1      49.618  49.774  15.999  1.00  0.00    +0.115 C 
BRANCH  26  27
ATOM     27  C   UNL     1      50.066  49.679  14.530  1.00  0.00    +0.181 C 
BRANCH  27  28
ATOM     28  O   UNL     1      51.349  50.272  14.340  1.00  0.00    -0.394 OA
ATOM     29  H   UNL     1      51.421  51.012  14.972  1.00  0.00    +0.210 HD
ENDBRANCH  27  28
ENDBRANCH  26  27
BRANCH  26  30
ATOM     30  N   UNL     1      48.551  48.809  16.287  1.00  0.00    -0.331 N 
ATOM     31  C   UNL     1      48.635  47.721  17.113  1.00  0.00    +0.200 A 
ATOM     32  C   UNL     1      47.296  48.822  15.744  1.00  0.00    +0.121 A 
ATOM     33  N   UNL     1      47.506  47.049  17.142  1.00  0.00    -0.232 NA
ATOM     34  C   UNL     1      46.649  47.728  16.283  1.00  0.00    +0.145 A 
BRANCH  34  35
ATOM     35  C   UNL     1      45.278  47.304  16.021  1.00  0.00    +0.268 C 
ATOM     36  N   UNL     1      45.094  45.956  16.142  1.00  0.00    -0.364 N 
ATOM     37  O   UNL     1      44.362  48.060  15.721  1.00  0.00    -0.268 OA
ATOM     38  H   UNL     1      44.174  45.566  16.020  1.00  0.00    +0.160 HD
ATOM     39  H   UNL     1      45.880  45.379  16.418  1.00  0.00    +0.160 HD
ENDBRANCH  34  35
ENDBRANCH  26  30
ENDBRANCH  25  26
ENDBRANCH  24  25
ENDBRANCH   7  24
TORSDOF 12
ENDMDL
MODEL 5
REMARK VINA RESULT:    -8.918      2.546      5.557
REMARK INTER + INTRA:         -16.877
REMARK INTER:                 -15.451
REMARK INTRA:                  -1.426
REMARK UNBOUND:                -1.964
REMARK SMILES Cc1ccc(CCCC(=O)Nc2ccc3ccn(CC[C@H](CO)n4cnc(C(N)=O)c4)c3c2)cc1
REMARK SMILES IDX 12 1 13 2 14 3 15 4 16 5 17 6 18 7 32 8 33 9 11 10 9 11
REMARK SMILES IDX 10 12 8 14 7 15 6 16 5 17 2 18 3 19 35 20 4 21 34 22 1 23
REMARK SMILES IDX 19 24 20 25 21 26 22 27 23 28 24 30 25 31 31 32 26 33 27 34
REMARK SMILES IDX 28 35 29 36 30 37
REMARK H PARENT 11 13 23 29 29 38 29 39
ROOT
ATOM      1  C   UNL     1      51.026  54.130  20.875  1.00  0.00    +0.043 A 
ATOM      2  C   UNL     1      51.836  54.586  21.911  1.00  0.00    +0.027 A 
ATOM      3  C   UNL     1      51.615  55.837  22.507  1.00  0.00    +0.012 A 
ATOM      4  C   UNL     1      50.562  56.650  22.052  1.00  0.00    -0.000 A 
ATOM      5  C   UNL     1      50.072  57.927  22.436  1.00  0.00    +0.028 A 
ATOM      6  C   UNL     1      48.996  58.220  21.631  1.00  0.00    +0.087 A 
ATOM      7  N   UNL     1      48.833  57.184  20.747  1.00  0.00    -0.347 N 
ATOM      8  C   UNL     1      49.759  56.191  21.005  1.00  0.00    +0.050 A 
ATOM      9  C   UNL     1      49.971  54.933  20.410  1.00  0.00    +0.053 A 
ENDROOT
BRANCH   1  10
ATOM     10  N   UNL     1      51.196  52.882  20.237  1.00  0.00    -0.326 N 
ATOM     11  C   UNL     1      51.907  52.608  19.079  1.00  0.00    +0.224 C 
ATOM     12  O   UNL     1      52.520  53.413  18.389  1.00  0.00    -0.275 OA
ATOM     13  H   UNL     1      50.754  52.092  20.689  1.00  0.00    +0.169 HD
BRANCH  11  14
ATOM     14  C   UNL     1      51.832  51.130  18.727  1.00  0.00    +0.101 C 
BRANCH  14  15
ATOM     15  C   UNL     1      50.436  50.548  18.953  1.00  0.00    +0.015 C 
BRANCH  15  16
ATOM     16  C   UNL     1      49.456  50.891  17.826  1.00  0.00    +0.036 C 
BRANCH  16  17
ATOM     17  C   UNL     1      48.166  50.110  17.881  1.00  0.00    -0.048 A 
ATOM     18  C   UNL     1      45.765  48.633  17.955  1.00  0.00    -0.051 A 
ATOM     19  C   UNL     1      45.861  49.793  17.179  1.00  0.00    +0.004 A 
ATOM     20  C   UNL     1      46.872  48.227  18.709  1.00  0.00    +0.004 A 
ATOM     21  C   UNL     1      47.050  50.525  17.141  1.00  0.00    +0.004 A 
ATOM     22  C   UNL     1      48.063  48.957  18.669  1.00  0.00    +0.004 A 
ATOM     23  C   UNL     1      44.474  47.871  18.013  1.00  0.00    +0.044 C 
ENDBRANCH  16  17
ENDBRANCH  15  16
ENDBRANCH  14  15
ENDBRANCH  11  14
ENDBRANCH   1  10
BRANCH   7  24
ATOM     24  C   UNL     1      47.817  57.153  19.707  1.00  0.00    +0.124 C 
BRANCH  24  25
ATOM     25  C   UNL     1      47.132  58.499  19.469  1.00  0.00    +0.050 C 
BRANCH  25  26
ATOM     26  C   UNL     1      47.659  59.291  18.256  1.00  0.00    +0.115 C 
BRANCH  26  27
ATOM     27  C   UNL     1      47.519  60.819  18.376  1.00  0.00    +0.181 C 
BRANCH  27  28
ATOM     28  O   UNL     1      46.766  61.182  19.531  1.00  0.00    -0.394 OA
ATOM     29  H   UNL     1      45.825  61.038  19.318  1.00  0.00    +0.210 HD
ENDBRANCH  27  28
ENDBRANCH  26  27
BRANCH  26  30
ATOM     30  N   UNL     1      47.025  58.799  17.028  1.00  0.00    -0.331 N 
ATOM     31  C   UNL     1      45.808  59.176  16.530  1.00  0.00    +0.200 A 
ATOM     32  C   UNL     1      47.540  57.848  16.191  1.00  0.00    +0.121 A 
ATOM     33  N   UNL     1      45.522  58.536  15.419  1.00  0.00    -0.232 NA
ATOM     34  C   UNL     1      46.603  57.692  15.190  1.00  0.00    +0.145 A 
BRANCH  34  35
ATOM     35  C   UNL     1      46.684  56.790  14.046  1.00  0.00    +0.268 C 
ATOM     36  N   UNL     1      47.662  57.128  13.155  1.00  0.00    -0.364 N 
ATOM     37  O   UNL     1      45.961  55.816  13.877  1.00  0.00    -0.268 OA
ATOM     38  H   UNL     1      47.827  56.545  12.351  1.00  0.00    +0.160 HD
ATOM     39  H   UNL     1      48.250  57.928  13.357  1.00  0.00    +0.160 HD
ENDBRANCH  34  35
ENDBRANCH  26  30
ENDBRANCH  25  26
ENDBRANCH  24  25
ENDBRANCH   7  24
TORSDOF 12
ENDMDL
