MODEL 1
REMARK VINA RESULT:    -8.877      0.000      0.000
REMARK INTER + INTRA:         -17.267
REMARK INTER:                 -14.846
REMARK INTRA:                  -2.422
REMARK UNBOUND:                -2.422
REMARK SMILES Cn1cc(CC[C@H](CO)n2cnc(C(N)=O)c2)c2cc(OCCCc3ccc(Cl)cc3)ccc21
REMARK SMILES IDX 1 1 2 2 3 3 4 4 18 5 19 6 20 7 32 8 33 9 34 10 5 11 6 12
REMARK SMILES IDX 7 13 8 14 9 15 10 17 11 18 17 19 12 20 13 21 14 22 15 23
REMARK SMILES IDX 16 24 21 27 22 28 23 29 24 30 25 31 26 32 31 33 27 34 30 35
REMARK SMILES IDX 28 36 29 37
REMARK H PARENT 9 16 15 25 15 26
ROOT
ATOM      1  C   UNL     1      47.138  57.009  15.244  1.00  0.00    +0.149 C 
ATOM      2  N   UNL     1      47.687  56.177  16.292  1.00  0.00    -0.350 N 
ATOM      3  C   UNL     1      47.957  54.840  16.168  1.00  0.00    +0.090 A 
ATOM      4  C   UNL     1      48.459  54.381  17.372  1.00  0.00    -0.022 A 
ATOM      5  C   UNL     1      48.466  55.499  18.269  1.00  0.00    +0.006 A 
ATOM      6  C   UNL     1      48.823  55.671  19.624  1.00  0.00    +0.057 A 
ATOM      7  C   UNL     1      48.691  56.922  20.244  1.00  0.00    +0.120 A 
ATOM      8  C   UNL     1      48.223  58.007  19.509  1.00  0.00    +0.048 A 
ATOM      9  C   UNL     1      47.867  57.870  18.161  1.00  0.00    +0.031 A 
ATOM     10  C   UNL     1      47.988  56.608  17.565  1.00  0.00    +0.048 A 
ENDROOT
BRANCH   4  11
ATOM     11  C   UNL     1      48.885  52.978  17.685  1.00  0.00    +0.040 C 
BRANCH  11  12
ATOM     12  C   UNL     1      48.519  51.968  16.590  1.00  0.00    +0.033 C 
BRANCH  12  13
ATOM     13  C   UNL     1      48.991  50.530  16.881  1.00  0.00    +0.114 C 
BRANCH  13  14
ATOM     14  C   UNL     1      49.576  49.896  15.602  1.00  0.00    +0.181 C 
BRANCH  14  15
ATOM     15  O   UNL     1      50.979  50.110  15.478  1.00  0.00    -0.394 OA
ATOM     16  H   UNL     1      51.427  49.736  16.257  1.00  0.00    +0.210 HD
ENDBRANCH  14  15
ENDBRANCH  13  14
BRANCH  13  17
ATOM     17  N   UNL     1      47.928  49.707  17.448  1.00  0.00    -0.331 N 
ATOM     18  C   UNL     1      47.982  49.069  18.656  1.00  0.00    +0.200 A 
ATOM     19  C   UNL     1      46.736  49.376  16.861  1.00  0.00    +0.121 A 
ATOM     20  N   UNL     1      46.918  48.328  18.855  1.00  0.00    -0.232 NA
ATOM     21  C   UNL     1      46.126  48.478  17.728  1.00  0.00    +0.145 A 
BRANCH  21  22
ATOM     22  C   UNL     1      44.866  47.753  17.535  1.00  0.00    +0.268 C 
ATOM     23  N   UNL     1      44.511  46.888  18.538  1.00  0.00    -0.364 N 
ATOM     24  O   UNL     1      44.139  47.866  16.553  1.00  0.00    -0.268 OA
ATOM     25  H   UNL     1      45.166  46.594  19.244  1.00  0.00    +0.160 HD
ATOM     26  H   UNL     1      43.691  46.325  18.366  1.00  0.00    +0.160 HD
ENDBRANCH  21  22
ENDBRANCH  13  17
ENDBRANCH  12  13
ENDBRANCH  11  12
ENDBRANCH   4  11
BRANCH   7  27
ATOM     27  O   UNL     1      49.027  56.928  21.570  1.00  0.00    -0.494 OA
BRANCH  27  28
ATOM     28  C   UNL     1      50.021  57.842  22.030  1.00  0.00    +0.230 C 
BRANCH  28  29
ATOM     29  C   UNL     1      51.417  57.244  21.841  1.00  0.00    +0.046 C 
BRANCH  29  30
ATOM     30  C   UNL     1      51.569  55.860  22.473  1.00  0.00    +0.039 C 
BRANCH  30  31
ATOM     31  C   UNL     1      51.747  54.740  21.479  1.00  0.00    -0.048 A 
ATOM     32  C   UNL     1      51.409  53.425  21.829  1.00  0.00    +0.005 A 
ATOM     33  C   UNL     1      52.232  54.998  20.188  1.00  0.00    +0.005 A 
ATOM     34  C   UNL     1      51.546  52.389  20.902  1.00  0.00    +0.021 A 
ATOM     35  C   UNL     1      52.376  53.961  19.264  1.00  0.00    +0.021 A 
ATOM     36  C   UNL     1      52.030  52.661  19.624  1.00  0.00    +0.041 A 
ATOM     37 Cl   UNL     1      52.180  51.382  18.479  1.00  0.00    -0.084 Cl
ENDBRANCH  30  31
ENDBRANCH  29  30
ENDBRANCH  28  29
ENDBRANCH  27  28
ENDBRANCH   7  27
TORSDOF 12
ENDMDL
MODEL 2
REMARK VINA RESULT:    -8.691      3.339      7.643
REMARK INTER + INTRA:         -16.956
REMARK INTER:                 -15.700
REMARK INTRA:                  -1.256
REMARK UNBOUND:                -2.422
REMARK SMILES Cn1cc(CC[C@H](CO)n2cnc(C(N)=O)c2)c2cc(OCCCc3ccc(Cl)cc3)ccc21
REMARK SMILES IDX 1 1 2 2 3 3 4 4 18 5 19 6 20 7 32 8 33 9 34 10 5 11 6 12
REMARK SMILES IDX 7 13 8 14 9 15 10 17 11 18 17 19 12 20 13 21 14 22 15 23
REMARK SMILES IDX 16 24 21 27 22 28 23 29 24 30 25 31 26 32 31 33 27 34 30 35
REMARK SMILES IDX 28 36 29 37
REMARK H PARENT 9 16 15 25 15 26
ROOT
ATOM      1  C   UNL     1      47.325  58.326  16.855  1.00  0.00    +0.149 C 
ATOM      2  N   UNL     1      47.876  57.461  17.875  1.00  0.00    -0.350 N 
ATOM      3  C   UNL     1      48.268  57.874  19.121  1.00  0.00    +0.090 A 
ATOM      4  C   UNL     1      48.752  56.778  19.813  1.00  0.00    -0.022 A 
ATOM      5  C   UNL     1      48.668  55.658  18.921  1.00  0.00    +0.006 A 
ATOM      6  C   UNL     1      49.027  54.296  19.017  1.00  0.00    +0.057 A 
ATOM      7  C   UNL     1      48.834  53.430  17.931  1.00  0.00    +0.120 A 
ATOM      8  C   UNL     1      48.264  53.914  16.757  1.00  0.00    +0.048 A 
ATOM      9  C   UNL     1      47.890  55.258  16.635  1.00  0.00    +0.031 A 
ATOM     10  C   UNL     1      48.109  56.112  17.724  1.00  0.00    +0.048 A 
ENDROOT
BRANCH   4  11
ATOM     11  C   UNL     1      49.289  56.771  21.212  1.00  0.00    +0.040 C 
BRANCH  11  12
ATOM     12  C   UNL     1      50.337  57.860  21.470  1.00  0.00    +0.033 C 
BRANCH  12  13
ATOM     13  C   UNL     1      51.722  57.314  21.873  1.00  0.00    +0.114 C 
BRANCH  13  14
ATOM     14  C   UNL     1      52.826  58.302  21.443  1.00  0.00    +0.181 C 
BRANCH  14  15
ATOM     15  O   UNL     1      53.368  59.028  22.542  1.00  0.00    -0.394 OA
ATOM     16  H   UNL     1      54.137  58.547  22.893  1.00  0.00    +0.210 HD
ENDBRANCH  14  15
ENDBRANCH  13  14
BRANCH  13  17
ATOM     17  N   UNL     1      51.962  55.978  21.339  1.00  0.00    -0.331 N 
ATOM     18  C   UNL     1      52.392  55.698  20.072  1.00  0.00    +0.200 A 
ATOM     19  C   UNL     1      51.741  54.783  21.972  1.00  0.00    +0.121 A 
ATOM     20  N   UNL     1      52.424  54.405  19.851  1.00  0.00    -0.232 NA
ATOM     21  C   UNL     1      51.992  53.802  21.021  1.00  0.00    +0.145 A 
BRANCH  21  22
ATOM     22  C   UNL     1      51.824  52.351  21.156  1.00  0.00    +0.268 C 
ATOM     23  N   UNL     1      50.962  51.935  22.138  1.00  0.00    -0.364 N 
ATOM     24  O   UNL     1      52.400  51.514  20.467  1.00  0.00    -0.268 OA
ATOM     25  H   UNL     1      50.642  52.556  22.864  1.00  0.00    +0.160 HD
ATOM     26  H   UNL     1      50.913  50.938  22.289  1.00  0.00    +0.160 HD
ENDBRANCH  21  22
ENDBRANCH  13  17
ENDBRANCH  12  13
ENDBRANCH  11  12
ENDBRANCH   4  11
BRANCH   7  27
ATOM     27  O   UNL     1      49.275  52.152  18.148  1.00  0.00    -0.494 OA
BRANCH  27  28
ATOM     28  C   UNL     1      48.621  51.071  17.487  1.00  0.00    +0.230 C 
BRANCH  28  29
ATOM     29  C   UNL     1      49.183  49.734  17.975  1.00  0.00    +0.046 C 
BRANCH  29  30
ATOM     30  C   UNL     1      48.166  48.904  18.758  1.00  0.00    +0.039 C 
BRANCH  30  31
ATOM     31  C   UNL     1      47.068  48.308  17.913  1.00  0.00    -0.048 A 
ATOM     32  C   UNL     1      45.749  48.766  18.042  1.00  0.00    +0.005 A 
ATOM     33  C   UNL     1      47.351  47.305  16.974  1.00  0.00    +0.005 A 
ATOM     34  C   UNL     1      44.734  48.236  17.241  1.00  0.00    +0.021 A 
ATOM     35  C   UNL     1      46.335  46.770  16.178  1.00  0.00    +0.021 A 
ATOM     36  C   UNL     1      45.032  47.241  16.314  1.00  0.00    +0.041 A 
ATOM     37 Cl   UNL     1      43.780  46.603  15.316  1.00  0.00    -0.084 Cl
ENDBRANCH  30  31
ENDBRANCH  29  30
ENDBRANCH  28  29
ENDBRANCH  27  28
ENDBRANCH   7  27
TORSDOF 12
ENDMDL
MODEL 3
REMARK VINA RESULT:    -8.602      4.949      7.708
REMARK INTER + INTRA:         -16.806
REMARK INTER:                 -15.816
REMARK INTRA:                  -0.991
REMARK UNBOUND:                -2.422
REMARK SMILES Cn1cc(CC[C@H](CO)n2cnc(C(N)=O)c2)c2cc(OCCCc3ccc(Cl)cc3)ccc21
REMARK SMILES IDX 1 1 2 2 3 3 4 4 18 5 19 6 20 7 32 8 33 9 34 10 5 11 6 12
REMARK SMILES IDX 7 13 8 14 9 15 10 17 11 18 17 19 12 20 13 21 14 22 15 23
REMARK SMILES IDX 16 24 21 27 22 28 23 29 24 30 25 31 26 32 31 33 27 34 30 35
REMARK SMILES IDX 28 36 29 37
REMARK H PARENT 9 16 15 25 15 26
ROOT
ATOM      1  C   UNL     1      51.550  54.658  21.798  1.00  0.00    +0.149 C 
ATOM      2  N   UNL     1      50.556  54.978  20.798  1.00  0.00    -0.350 N 
ATOM      3  C   UNL     1      50.302  54.229  19.681  1.00  0.00    +0.090 A 
ATOM      4  C   UNL     1      49.299  54.848  18.956  1.00  0.00    -0.022 A 
ATOM      5  C   UNL     1      48.955  56.044  19.669  1.00  0.00    +0.006 A 
ATOM      6  C   UNL     1      48.047  57.100  19.437  1.00  0.00    +0.057 A 
ATOM      7  C   UNL     1      47.956  58.173  20.336  1.00  0.00    +0.120 A 
ATOM      8  C   UNL     1      48.752  58.184  21.477  1.00  0.00    +0.048 A 
ATOM      9  C   UNL     1      49.657  57.146  21.738  1.00  0.00    +0.031 A 
ATOM     10  C   UNL     1      49.747  56.094  20.819  1.00  0.00    +0.048 A 
ENDROOT
BRANCH   4  11
ATOM     11  C   UNL     1      48.710  54.375  17.662  1.00  0.00    +0.040 C 
BRANCH  11  12
ATOM     12  C   UNL     1      48.086  52.976  17.749  1.00  0.00    +0.033 C 
BRANCH  12  13
ATOM     13  C   UNL     1      48.855  51.897  16.959  1.00  0.00    +0.114 C 
BRANCH  13  14
ATOM     14  C   UNL     1      47.877  51.081  16.090  1.00  0.00    +0.181 C 
BRANCH  14  15
ATOM     15  O   UNL     1      48.524  50.431  15.000  1.00  0.00    -0.394 OA
ATOM     16  H   UNL     1      49.374  50.069  15.305  1.00  0.00    +0.210 HD
ENDBRANCH  14  15
ENDBRANCH  13  14
BRANCH  13  17
ATOM     17  N   UNL     1      49.644  51.035  17.832  1.00  0.00    -0.331 N 
ATOM     18  C   UNL     1      49.184  49.912  18.459  1.00  0.00    +0.200 A 
ATOM     19  C   UNL     1      50.943  51.226  18.227  1.00  0.00    +0.121 A 
ATOM     20  N   UNL     1      50.094  49.399  19.253  1.00  0.00    -0.232 NA
ATOM     21  C   UNL     1      51.205  50.221  19.150  1.00  0.00    +0.145 A 
BRANCH  21  22
ATOM     22  C   UNL     1      52.424  50.019  19.940  1.00  0.00    +0.268 C 
ATOM     23  N   UNL     1      52.974  48.765  19.887  1.00  0.00    -0.364 N 
ATOM     24  O   UNL     1      52.958  50.881  20.631  1.00  0.00    -0.268 OA
ATOM     25  H   UNL     1      52.465  47.975  19.524  1.00  0.00    +0.160 HD
ATOM     26  H   UNL     1      53.761  48.601  20.497  1.00  0.00    +0.160 HD
ENDBRANCH  21  22
ENDBRANCH  13  17
ENDBRANCH  12  13
ENDBRANCH  11  12
ENDBRANCH   4  11
BRANCH   7  27
ATOM     27  O   UNL     1      47.072  59.147  19.957  1.00  0.00    -0.494 OA
BRANCH  27  28
ATOM     28  C   UNL     1      47.360  59.933  18.802  1.00  0.00    +0.230 C 
BRANCH  28  29
ATOM     29  C   UNL     1      46.935  61.385  19.031  1.00  0.00    +0.046 C 
BRANCH  29  30
ATOM     30  C   UNL     1      47.413  62.332  17.930  1.00  0.00    +0.039 C 
BRANCH  30  31
ATOM     31  C   UNL     1      46.502  63.509  17.685  1.00  0.00    -0.048 A 
ATOM     32  C   UNL     1      47.007  64.685  17.111  1.00  0.00    +0.005 A 
ATOM     33  C   UNL     1      45.138  63.439  18.005  1.00  0.00    +0.005 A 
ATOM     34  C   UNL     1      46.161  65.767  16.856  1.00  0.00    +0.021 A 
ATOM     35  C   UNL     1      44.294  64.523  17.756  1.00  0.00    +0.021 A 
ATOM     36  C   UNL     1      44.809  65.682  17.180  1.00  0.00    +0.041 A 
ATOM     37 Cl   UNL     1      43.767  67.013  16.847  1.00  0.00    -0.084 Cl
ENDBRANCH  30  31
ENDBRANCH  29  30
ENDBRANCH  28  29
ENDBRANCH  27  28
ENDBRANCH   7  27
TORSDOF 12
ENDMDL
MODEL 4
REMARK VINA RESULT:    -8.347      2.941      8.792
REMARK INTER + INTRA:         -16.380
REMARK INTER:                 -14.294
REMARK INTRA:                  -2.086
REMARK UNBOUND:                -2.422
REMARK SMILES Cn1cc(CC[C@H](CO)n2cnc(C(N)=O)c2)c2cc(OCCCc3ccc(Cl)cc3)ccc21
REMARK SMILES IDX 1 1 2 2 3 3 4 4 18 5 19 6 20 7 32 8 33 9 34 10 5 11 6 12
REMARK SMILES IDX 7 13 8 14 9 15 10 17 11 18 17 19 12 20 13 21 14 22 15 23
REMARK SMILES IDX 16 24 21 27 22 28 23 29 24 30 25 31 26 32 31 33 27 34 30 35
REMARK SMILES IDX 28 36 29 37
REMARK H PARENT 9 16 15 25 15 26
ROOT
ATOM      1  C   UNL     1      52.519  50.529  19.388  1.00  0.00    +0.149 C 
ATOM      2  N   UNL     1      51.241  51.013  18.915  1.00  0.00    -0.350 N 
ATOM      3  C   UNL     1      50.984  52.305  18.542  1.00  0.00    +0.090 A 
ATOM      4  C   UNL     1      49.658  52.395  18.159  1.00  0.00    -0.022 A 
ATOM      5  C   UNL     1      49.088  51.092  18.337  1.00  0.00    +0.006 A 
ATOM      6  C   UNL     1      47.797  50.551  18.158  1.00  0.00    +0.057 A 
ATOM      7  C   UNL     1      47.542  49.202  18.449  1.00  0.00    +0.120 A 
ATOM      8  C   UNL     1      48.577  48.388  18.897  1.00  0.00    +0.048 A 
ATOM      9  C   UNL     1      49.871  48.894  19.078  1.00  0.00    +0.031 A 
ATOM     10  C   UNL     1      50.101  50.248  18.800  1.00  0.00    +0.048 A 
ENDROOT
BRANCH   4  11
ATOM     11  C   UNL     1      48.949  53.626  17.679  1.00  0.00    +0.040 C 
BRANCH  11  12
ATOM     12  C   UNL     1      49.535  54.928  18.239  1.00  0.00    +0.033 C 
BRANCH  12  13
ATOM     13  C   UNL     1      49.275  55.135  19.745  1.00  0.00    +0.114 C 
BRANCH  13  14
ATOM     14  C   UNL     1      48.176  56.197  19.951  1.00  0.00    +0.181 C 
BRANCH  14  15
ATOM     15  O   UNL     1      48.046  57.073  18.835  1.00  0.00    -0.394 OA
ATOM     16  H   UNL     1      47.823  56.552  18.045  1.00  0.00    +0.210 HD
ENDBRANCH  14  15
ENDBRANCH  13  14
BRANCH  13  17
ATOM     17  N   UNL     1      50.493  55.478  20.471  1.00  0.00    -0.331 N 
ATOM     18  C   UNL     1      51.037  54.749  21.491  1.00  0.00    +0.200 A 
ATOM     19  C   UNL     1      51.262  56.601  20.312  1.00  0.00    +0.121 A 
ATOM     20  N   UNL     1      52.078  55.355  22.012  1.00  0.00    -0.232 NA
ATOM     21  C   UNL     1      52.229  56.538  21.308  1.00  0.00    +0.145 A 
BRANCH  21  22
ATOM     22  C   UNL     1      53.253  57.537  21.634  1.00  0.00    +0.268 C 
ATOM     23  N   UNL     1      52.796  58.715  22.165  1.00  0.00    -0.364 N 
ATOM     24  O   UNL     1      54.458  57.384  21.455  1.00  0.00    -0.268 OA
ATOM     25  H   UNL     1      51.824  58.976  22.125  1.00  0.00    +0.160 HD
ATOM     26  H   UNL     1      53.490  59.433  22.308  1.00  0.00    +0.160 HD
ENDBRANCH  21  22
ENDBRANCH  13  17
ENDBRANCH  12  13
ENDBRANCH  11  12
ENDBRANCH   4  11
BRANCH   7  27
ATOM     27  O   UNL     1      46.236  48.830  18.278  1.00  0.00    -0.494 OA
BRANCH  27  28
ATOM     28  C   UNL     1      45.536  49.272  17.116  1.00  0.00    +0.230 C 
BRANCH  28  29
ATOM     29  C   UNL     1      45.115  48.074  16.264  1.00  0.00    +0.046 C 
BRANCH  29  30
ATOM     30  C   UNL     1      45.726  48.088  14.862  1.00  0.00    +0.039 C 
BRANCH  30  31
ATOM     31  C   UNL     1      47.164  48.541  14.817  1.00  0.00    -0.048 A 
ATOM     32  C   UNL     1      48.157  47.807  15.481  1.00  0.00    +0.005 A 
ATOM     33  C   UNL     1      47.532  49.686  14.095  1.00  0.00    +0.005 A 
ATOM     34  C   UNL     1      49.494  48.207  15.417  1.00  0.00    +0.021 A 
ATOM     35  C   UNL     1      48.868  50.090  14.037  1.00  0.00    +0.021 A 
ATOM     36  C   UNL     1      49.843  49.347  14.697  1.00  0.00    +0.041 A 
ATOM     37 Cl   UNL     1      51.496  49.826  14.608  1.00  0.00    -0.084 Cl
ENDBRANCH  30  31
ENDBRANCH  29  30
ENDBRANCH  28  29
ENDBRANCH  27  28
ENDBRANCH   7  27
TORSDOF 12
ENDMDL
MODEL 5
REMARK VINA RESULT:    -8.070      5.095      8.784
REMARK INTER + INTRA:         -15.917
REMARK INTER:                 -14.126
REMARK INTRA:                  -1.791
REMARK UNBOUND:                -2.422
REMARK SMILES Cn1cc(CC[C@H](CO)n2cnc(C(N)=O)c2)c2cc(OCCCc3ccc(Cl)cc3)ccc21
REMARK SMILES IDX 1 1 2 2 3 3 4 4 18 5 19 6 20 7 32 8 33 9 34 10 5 11 6 12
REMARK SMILES IDX 7 13 8 14 9 15 10 17 11 18 17 19 12 20 13 21 14 22 15 23
REMARK SMILES IDX 16 24 21 27 22 28 23 29 24 30 25 31 26 32 31 33 27 34 30 35
REMARK SMILES IDX 28 36 29 37
REMARK H PARENT 9 16 15 25 15 26
ROOT
ATOM      1  C   UNL     1      48.791  58.283  21.911  1.00  0.00    +0.149 C 
ATOM      2  N   UNL     1      48.651  57.488  20.712  1.00  0.00    -0.350 N 
ATOM      3  C   UNL     1      49.035  56.179  20.593  1.00  0.00    +0.090 A 
ATOM      4  C   UNL     1      48.758  55.756  19.305  1.00  0.00    -0.022 A 
ATOM      5  C   UNL     1      48.202  56.882  18.613  1.00  0.00    +0.006 A 
ATOM      6  C   UNL     1      47.755  57.101  17.292  1.00  0.00    +0.057 A 
ATOM      7  C   UNL     1      47.270  58.359  16.902  1.00  0.00    +0.120 A 
ATOM      8  C   UNL     1      47.209  59.391  17.833  1.00  0.00    +0.048 A 
ATOM      9  C   UNL     1      47.638  59.202  19.153  1.00  0.00    +0.031 A 
ATOM     10  C   UNL     1      48.138  57.945  19.518  1.00  0.00    +0.048 A 
ENDROOT
BRANCH   4  11
ATOM     11  C   UNL     1      49.018  54.394  18.737  1.00  0.00    +0.040 C 
BRANCH  11  12
ATOM     12  C   UNL     1      50.126  53.626  19.470  1.00  0.00    +0.033 C 
BRANCH  12  13
ATOM     13  C   UNL     1      51.552  54.089  19.109  1.00  0.00    +0.114 C 
BRANCH  13  14
ATOM     14  C   UNL     1      52.480  52.867  18.953  1.00  0.00    +0.181 C 
BRANCH  14  15
ATOM     15  O   UNL     1      53.174  52.862  17.709  1.00  0.00    -0.394 OA
ATOM     16  H   UNL     1      53.816  53.593  17.700  1.00  0.00    +0.210 HD
ENDBRANCH  14  15
ENDBRANCH  13  14
BRANCH  13  17
ATOM     17  N   UNL     1      52.081  55.043  20.077  1.00  0.00    -0.331 N 
ATOM     18  C   UNL     1      51.914  54.970  21.431  1.00  0.00    +0.200 A 
ATOM     19  C   UNL     1      52.770  56.198  19.808  1.00  0.00    +0.121 A 
ATOM     20  N   UNL     1      52.421  56.020  22.034  1.00  0.00    -0.232 NA
ATOM     21  C   UNL     1      52.943  56.826  21.035  1.00  0.00    +0.145 A 
BRANCH  21  22
ATOM     22  C   UNL     1      53.545  58.136  21.299  1.00  0.00    +0.268 C 
ATOM     23  N   UNL     1      53.064  58.810  22.392  1.00  0.00    -0.364 N 
ATOM     24  O   UNL     1      54.423  58.652  20.613  1.00  0.00    -0.268 OA
ATOM     25  H   UNL     1      52.207  58.541  22.849  1.00  0.00    +0.160 HD
ATOM     26  H   UNL     1      53.416  59.747  22.524  1.00  0.00    +0.160 HD
ENDBRANCH  21  22
ENDBRANCH  13  17
ENDBRANCH  12  13
ENDBRANCH  11  12
ENDBRANCH   4  11
BRANCH   7  27
ATOM     27  O   UNL     1      46.921  58.439  15.581  1.00  0.00    -0.494 OA
BRANCH  27  28
ATOM     28  C   UNL     1      45.554  58.262  15.214  1.00  0.00    +0.230 C 
BRANCH  28  29
ATOM     29  C   UNL     1      45.035  59.506  14.490  1.00  0.00    +0.046 C 
BRANCH  29  30
ATOM     30  C   UNL     1      43.883  60.192  15.225  1.00  0.00    +0.039 C 
BRANCH  30  31
ATOM     31  C   UNL     1      44.306  61.003  16.424  1.00  0.00    -0.048 A 
ATOM     32  C   UNL     1      43.775  60.722  17.691  1.00  0.00    +0.005 A 
ATOM     33  C   UNL     1      45.250  62.033  16.295  1.00  0.00    +0.005 A 
ATOM     34  C   UNL     1      44.186  61.452  18.809  1.00  0.00    +0.021 A 
ATOM     35  C   UNL     1      45.655  62.768  17.412  1.00  0.00    +0.021 A 
ATOM     36  C   UNL     1      45.123  62.472  18.664  1.00  0.00    +0.041 A 
ATOM     37 Cl   UNL     1      45.639  63.359  20.049  1.00  0.00    -0.084 Cl
ENDBRANCH  30  31
ENDBRANCH  29  30
ENDBRANCH  28  29
ENDBRANCH  27  28
ENDBRANCH   7  27
TORSDOF 12
ENDMDL
