MODEL 1
REMARK VINA RESULT:    -9.150      0.000      0.000
REMARK INTER + INTRA:         -15.875
REMARK INTER:                 -14.232
REMARK INTRA:                  -1.643
REMARK UNBOUND:                -1.643
REMARK SMILES NC(=O)c1cn([C@@H](CO)CCn2ccc3ccc(NC(=O)NCc4ccccc4)cc32)cn1
REMARK SMILES IDX 10 1 7 2 6 3 4 4 5 5 33 6 32 7 2 8 1 9 3 10 8 13 9 14 11 16
REMARK SMILES IDX 12 17 13 18 31 19 14 20 30 21 15 22 18 23 16 24 17 25 19 26
REMARK SMILES IDX 20 27 21 28 22 29 23 32 24 33 25 34 29 35 26 36 28 37 27 38
REMARK H PARENT 1 11 1 12 9 15 19 30 22 31
ROOT
ATOM      1  C   UNL     1      50.840  57.696  21.404  1.00  0.00    +0.050 C 
ENDROOT
BRANCH   1   2
ATOM      2  C   UNL     1      51.861  56.703  22.005  1.00  0.00    +0.115 C 
BRANCH   2   3
ATOM      3  N   UNL     1      51.967  55.462  21.251  1.00  0.00    -0.331 N 
ATOM      4  C   UNL     1      51.913  53.367  20.622  1.00  0.00    +0.145 A 
ATOM      5  C   UNL     1      51.632  54.208  21.680  1.00  0.00    +0.121 A 
ATOM      6  N   UNL     1      52.400  54.104  19.552  1.00  0.00    -0.232 NA
ATOM      7  C   UNL     1      52.417  55.353  19.964  1.00  0.00    +0.200 A 
BRANCH   4   8
ATOM      8  C   UNL     1      51.747  51.916  20.593  1.00  0.00    +0.268 C 
ATOM      9  N   UNL     1      52.113  51.302  21.756  1.00  0.00    -0.364 N 
ATOM     10  O   UNL     1      51.312  51.288  19.633  1.00  0.00    -0.268 OA
ATOM     11  H   UNL     1      51.942  50.315  21.869  1.00  0.00    +0.160 HD
ATOM     12  H   UNL     1      52.386  51.878  22.545  1.00  0.00    +0.160 HD
ENDBRANCH   4   8
ENDBRANCH   2   3
BRANCH   2  13
ATOM     13  C   UNL     1      53.247  57.351  22.160  1.00  0.00    +0.181 C 
BRANCH  13  14
ATOM     14  O   UNL     1      53.140  58.760  22.342  1.00  0.00    -0.394 OA
ATOM     15  H   UNL     1      53.222  59.185  21.468  1.00  0.00    +0.210 HD
ENDBRANCH  13  14
ENDBRANCH   2  13
ENDBRANCH   1   2
BRANCH   1  16
ATOM     16  C   UNL     1      49.407  57.160  21.305  1.00  0.00    +0.124 C 
BRANCH  16  17
ATOM     17  N   UNL     1      48.805  57.322  19.992  1.00  0.00    -0.347 N 
ATOM     18  C   UNL     1      48.265  58.498  19.536  1.00  0.00    +0.087 A 
ATOM     19  C   UNL     1      48.684  56.339  19.030  1.00  0.00    +0.050 A 
ATOM     20  C   UNL     1      47.833  58.292  18.246  1.00  0.00    +0.028 A 
ATOM     21  C   UNL     1      49.045  54.979  19.034  1.00  0.00    +0.053 A 
ATOM     22  C   UNL     1      48.088  56.936  17.916  1.00  0.00    -0.000 A 
ATOM     23  C   UNL     1      48.797  54.207  17.886  1.00  0.00    +0.044 A 
ATOM     24  C   UNL     1      47.856  56.154  16.771  1.00  0.00    +0.012 A 
ATOM     25  C   UNL     1      48.216  54.798  16.767  1.00  0.00    +0.027 A 
BRANCH  23  26
ATOM     26  N   UNL     1      49.182  52.851  17.937  1.00  0.00    -0.308 N 
ATOM     27  C   UNL     1      48.838  51.843  17.059  1.00  0.00    +0.319 C 
ATOM     28  O   UNL     1      48.060  51.925  16.118  1.00  0.00    -0.248 OA
ATOM     29  N   UNL     1      49.479  50.670  17.402  1.00  0.00    -0.334 N 
ATOM     30  H   UNL     1      49.632  52.541  18.784  1.00  0.00    +0.171 HD
ATOM     31  H   UNL     1      50.383  50.779  17.836  1.00  0.00    +0.165 HD
BRANCH  29  32
ATOM     32  C   UNL     1      49.322  49.481  16.591  1.00  0.00    +0.153 C 
BRANCH  32  33
ATOM     33  C   UNL     1      48.139  48.667  17.053  1.00  0.00    -0.029 A 
ATOM     34  C   UNL     1      47.499  48.960  18.266  1.00  0.00    +0.005 A 
ATOM     35  C   UNL     1      47.692  47.575  16.294  1.00  0.00    +0.005 A 
ATOM     36  C   UNL     1      46.421  48.186  18.702  1.00  0.00    +0.000 A 
ATOM     37  C   UNL     1      46.615  46.803  16.732  1.00  0.00    +0.000 A 
ATOM     38  C   UNL     1      45.980  47.109  17.934  1.00  0.00    +0.000 A 
ENDBRANCH  32  33
ENDBRANCH  29  32
ENDBRANCH  23  26
ENDBRANCH  16  17
ENDBRANCH   1  16
TORSDOF 10
ENDMDL
MODEL 2
REMARK VINA RESULT:    -8.712      2.494      5.410
REMARK INTER + INTRA:         -15.194
REMARK INTER:                 -14.228
REMARK INTRA:                  -0.966
REMARK UNBOUND:                -1.643
REMARK SMILES NC(=O)c1cn([C@@H](CO)CCn2ccc3ccc(NC(=O)NCc4ccccc4)cc32)cn1
REMARK SMILES IDX 10 1 7 2 6 3 4 4 5 5 33 6 32 7 2 8 1 9 3 10 8 13 9 14 11 16
REMARK SMILES IDX 12 17 13 18 31 19 14 20 30 21 15 22 18 23 16 24 17 25 19 26
REMARK SMILES IDX 20 27 21 28 22 29 23 32 24 33 25 34 29 35 26 36 28 37 27 38
REMARK H PARENT 1 11 1 12 9 15 19 30 22 31
ROOT
ATOM      1  C   UNL     1      48.813  54.389  19.304  1.00  0.00    +0.050 C 
ENDROOT
BRANCH   1   2
ATOM      2  C   UNL     1      48.722  55.932  19.256  1.00  0.00    +0.115 C 
BRANCH   2   3
ATOM      3  N   UNL     1      49.588  56.589  20.226  1.00  0.00    -0.331 N 
ATOM      4  C   UNL     1      51.309  57.423  21.290  1.00  0.00    +0.145 A 
ATOM      5  C   UNL     1      50.943  56.751  20.141  1.00  0.00    +0.121 A 
ATOM      6  N   UNL     1      50.184  57.681  22.061  1.00  0.00    -0.232 NA
ATOM      7  C   UNL     1      49.174  57.169  21.393  1.00  0.00    +0.200 A 
BRANCH   4   8
ATOM      8  C   UNL     1      52.661  57.812  21.680  1.00  0.00    +0.268 C 
ATOM      9  N   UNL     1      52.730  59.054  22.242  1.00  0.00    -0.364 N 
ATOM     10  O   UNL     1      53.652  57.104  21.538  1.00  0.00    -0.268 OA
ATOM     11  H   UNL     1      53.603  59.371  22.634  1.00  0.00    +0.160 HD
ATOM     12  H   UNL     1      51.868  59.559  22.412  1.00  0.00    +0.160 HD
ENDBRANCH   4   8
ENDBRANCH   2   3
BRANCH   2  13
ATOM     13  C   UNL     1      49.007  56.466  17.843  1.00  0.00    +0.181 C 
BRANCH  13  14
ATOM     14  O   UNL     1      48.203  55.802  16.870  1.00  0.00    -0.394 OA
ATOM     15  H   UNL     1      47.338  55.606  17.276  1.00  0.00    +0.210 HD
ENDBRANCH  13  14
ENDBRANCH   2  13
ENDBRANCH   1   2
BRANCH   1  16
ATOM     16  C   UNL     1      50.157  53.813  18.844  1.00  0.00    +0.124 C 
BRANCH  16  17
ATOM     17  N   UNL     1      50.712  52.817  19.746  1.00  0.00    -0.347 N 
ATOM     18  C   UNL     1      51.528  53.114  20.808  1.00  0.00    +0.087 A 
ATOM     19  C   UNL     1      50.510  51.453  19.669  1.00  0.00    +0.050 A 
ATOM     20  C   UNL     1      51.821  51.937  21.458  1.00  0.00    +0.028 A 
ATOM     21  C   UNL     1      49.792  50.666  18.749  1.00  0.00    +0.053 A 
ATOM     22  C   UNL     1      51.188  50.883  20.749  1.00  0.00    -0.000 A 
ATOM     23  C   UNL     1      49.761  49.272  18.928  1.00  0.00    +0.044 A 
ATOM     24  C   UNL     1      51.139  49.488  20.921  1.00  0.00    +0.012 A 
ATOM     25  C   UNL     1      50.423  48.698  20.009  1.00  0.00    +0.027 A 
BRANCH  23  26
ATOM     26  N   UNL     1      49.023  48.527  17.983  1.00  0.00    -0.308 N 
ATOM     27  C   UNL     1      47.671  48.253  17.996  1.00  0.00    +0.319 C 
ATOM     28  O   UNL     1      46.875  48.534  18.881  1.00  0.00    -0.248 OA
ATOM     29  N   UNL     1      47.311  47.562  16.856  1.00  0.00    -0.334 N 
ATOM     30  H   UNL     1      49.557  48.007  17.304  1.00  0.00    +0.171 HD
ATOM     31  H   UNL     1      47.855  47.771  16.032  1.00  0.00    +0.165 HD
BRANCH  29  32
ATOM     32  C   UNL     1      45.929  47.212  16.613  1.00  0.00    +0.153 C 
BRANCH  32  33
ATOM     33  C   UNL     1      45.511  47.606  15.218  1.00  0.00    -0.029 A 
ATOM     34  C   UNL     1      44.195  47.399  14.779  1.00  0.00    +0.005 A 
ATOM     35  C   UNL     1      46.449  48.144  14.323  1.00  0.00    +0.005 A 
ATOM     36  C   UNL     1      43.821  47.740  13.478  1.00  0.00    +0.000 A 
ATOM     37  C   UNL     1      46.072  48.484  13.024  1.00  0.00    +0.000 A 
ATOM     38  C   UNL     1      44.760  48.283  12.601  1.00  0.00    +0.000 A 
ENDBRANCH  32  33
ENDBRANCH  29  32
ENDBRANCH  23  26
ENDBRANCH  16  17
ENDBRANCH   1  16
TORSDOF 10
ENDMDL
MODEL 3
REMARK VINA RESULT:    -8.558      2.579      5.297
REMARK INTER + INTRA:         -14.954
REMARK INTER:                 -13.699
REMARK INTRA:                  -1.256
REMARK UNBOUND:                -1.643
REMARK SMILES NC(=O)c1cn([C@@H](CO)CCn2ccc3ccc(NC(=O)NCc4ccccc4)cc32)cn1
REMARK SMILES IDX 10 1 7 2 6 3 4 4 5 5 33 6 32 7 2 8 1 9 3 10 8 13 9 14 11 16
REMARK SMILES IDX 12 17 13 18 31 19 14 20 30 21 15 22 18 23 16 24 17 25 19 26
REMARK SMILES IDX 20 27 21 28 22 29 23 32 24 33 25 34 29 35 26 36 28 37 27 38
REMARK H PARENT 1 11 1 12 9 15 19 30 22 31
ROOT
ATOM      1  C   UNL     1      46.871  59.188  19.928  1.00  0.00    +0.050 C 
ENDROOT
BRANCH   1   2
ATOM      2  C   UNL     1      47.581  59.672  18.642  1.00  0.00    +0.115 C 
BRANCH   2   3
ATOM      3  N   UNL     1      47.073  59.039  17.433  1.00  0.00    -0.331 N 
ATOM      4  C   UNL     1      46.767  57.723  15.711  1.00  0.00    +0.145 A 
ATOM      5  C   UNL     1      47.580  57.934  16.807  1.00  0.00    +0.121 A 
ATOM      6  N   UNL     1      45.765  58.683  15.677  1.00  0.00    -0.232 NA
ATOM      7  C   UNL     1      45.979  59.451  16.723  1.00  0.00    +0.200 A 
BRANCH   4   8
ATOM      8  C   UNL     1      46.911  56.671  14.708  1.00  0.00    +0.268 C 
ATOM      9  N   UNL     1      47.318  57.132  13.489  1.00  0.00    -0.364 N 
ATOM     10  O   UNL     1      46.704  55.481  14.920  1.00  0.00    -0.268 OA
ATOM     11  H   UNL     1      47.542  56.471  12.761  1.00  0.00    +0.160 HD
ATOM     12  H   UNL     1      47.556  58.113  13.395  1.00  0.00    +0.160 HD
ENDBRANCH   4   8
ENDBRANCH   2   3
BRANCH   2  13
ATOM     13  C   UNL     1      47.515  61.202  18.509  1.00  0.00    +0.181 C 
BRANCH  13  14
ATOM     14  O   UNL     1      47.012  61.802  19.700  1.00  0.00    -0.394 OA
ATOM     15  H   UNL     1      47.774  62.062  20.251  1.00  0.00    +0.210 HD
ENDBRANCH  13  14
ENDBRANCH   2  13
ENDBRANCH   1   2
BRANCH   1  16
ATOM     16  C   UNL     1      47.111  57.714  20.274  1.00  0.00    +0.124 C 
BRANCH  16  17
ATOM     17  N   UNL     1      48.421  57.447  20.844  1.00  0.00    -0.347 N 
ATOM     18  C   UNL     1      49.002  58.211  21.824  1.00  0.00    +0.087 A 
ATOM     19  C   UNL     1      49.261  56.410  20.491  1.00  0.00    +0.050 A 
ATOM     20  C   UNL     1      50.211  57.638  22.146  1.00  0.00    +0.028 A 
ATOM     21  C   UNL     1      49.136  55.394  19.524  1.00  0.00    +0.053 A 
ATOM     22  C   UNL     1      50.388  56.504  21.311  1.00  0.00    -0.000 A 
ATOM     23  C   UNL     1      50.173  54.456  19.387  1.00  0.00    +0.044 A 
ATOM     24  C   UNL     1      51.412  55.552  21.170  1.00  0.00    +0.012 A 
ATOM     25  C   UNL     1      51.292  54.535  20.211  1.00  0.00    +0.027 A 
BRANCH  23  26
ATOM     26  N   UNL     1      49.998  53.454  18.409  1.00  0.00    -0.308 N 
ATOM     27  C   UNL     1      50.022  52.086  18.589  1.00  0.00    +0.319 C 
ATOM     28  O   UNL     1      50.288  51.488  19.624  1.00  0.00    -0.248 OA
ATOM     29  N   UNL     1      49.729  51.441  17.404  1.00  0.00    -0.334 N 
ATOM     30  H   UNL     1      50.007  53.756  17.447  1.00  0.00    +0.171 HD
ATOM     31  H   UNL     1      49.106  51.935  16.783  1.00  0.00    +0.165 HD
BRANCH  29  32
ATOM     32  C   UNL     1      49.636  49.998  17.355  1.00  0.00    +0.153 C 
BRANCH  32  33
ATOM     33  C   UNL     1      48.214  49.543  17.568  1.00  0.00    -0.029 A 
ATOM     34  C   UNL     1      47.166  50.091  16.814  1.00  0.00    +0.005 A 
ATOM     35  C   UNL     1      47.914  48.596  18.559  1.00  0.00    +0.005 A 
ATOM     36  C   UNL     1      45.848  49.686  17.034  1.00  0.00    +0.000 A 
ATOM     37  C   UNL     1      46.596  48.193  18.778  1.00  0.00    +0.000 A 
ATOM     38  C   UNL     1      45.564  48.737  18.016  1.00  0.00    +0.000 A 
ENDBRANCH  32  33
ENDBRANCH  29  32
ENDBRANCH  23  26
ENDBRANCH  16  17
ENDBRANCH   1  16
TORSDOF 10
ENDMDL
MODEL 4
REMARK VINA RESULT:    -8.533      2.990      9.130
REMARK INTER + INTRA:         -14.914
REMARK INTER:                 -14.473
REMARK INTRA:                  -0.442
REMARK UNBOUND:                -1.643
REMARK SMILES NC(=O)c1cn([C@@H](CO)CCn2ccc3ccc(NC(=O)NCc4ccccc4)cc32)cn1
REMARK SMILES IDX 10 1 7 2 6 3 4 4 5 5 33 6 32 7 2 8 1 9 3 10 8 13 9 14 11 16
REMARK SMILES IDX 12 17 13 18 31 19 14 20 30 21 15 22 18 23 16 24 17 25 19 26
REMARK SMILES IDX 20 27 21 28 22 29 23 32 24 33 25 34 29 35 26 36 28 37 27 38
REMARK H PARENT 1 11 1 12 9 15 19 30 22 31
ROOT
ATOM      1  C   UNL     1      48.967  51.171  18.379  1.00  0.00    +0.050 C 
ENDROOT
BRANCH   1   2
ATOM      2  C   UNL     1      49.297  50.008  17.416  1.00  0.00    +0.115 C 
BRANCH   2   3
ATOM      3  N   UNL     1      48.281  48.965  17.406  1.00  0.00    -0.331 N 
ATOM      4  C   UNL     1      46.476  47.777  17.753  1.00  0.00    +0.145 A 
ATOM      5  C   UNL     1      47.083  48.977  18.066  1.00  0.00    +0.121 A 
ATOM      6  N   UNL     1      47.289  47.047  16.898  1.00  0.00    -0.232 NA
ATOM      7  C   UNL     1      48.359  47.789  16.711  1.00  0.00    +0.200 A 
BRANCH   4   8
ATOM      8  C   UNL     1      45.181  47.303  18.235  1.00  0.00    +0.268 C 
ATOM      9  N   UNL     1      44.250  47.164  17.247  1.00  0.00    -0.364 N 
ATOM     10  O   UNL     1      44.935  47.037  19.407  1.00  0.00    -0.268 OA
ATOM     11  H   UNL     1      43.357  46.749  17.465  1.00  0.00    +0.160 HD
ATOM     12  H   UNL     1      44.533  47.317  16.286  1.00  0.00    +0.160 HD
ENDBRANCH   4   8
ENDBRANCH   2   3
BRANCH   2  13
ATOM     13  C   UNL     1      49.549  50.518  15.987  1.00  0.00    +0.181 C 
BRANCH  13  14
ATOM     14  O   UNL     1      50.765  49.993  15.460  1.00  0.00    -0.394 OA
ATOM     15  H   UNL     1      51.288  50.737  15.110  1.00  0.00    +0.210 HD
ENDBRANCH  13  14
ENDBRANCH   2  13
ENDBRANCH   1   2
BRANCH   1  16
ATOM     16  C   UNL     1      49.881  52.394  18.241  1.00  0.00    +0.124 C 
BRANCH  16  17
ATOM     17  N   UNL     1      50.615  52.722  19.452  1.00  0.00    -0.347 N 
ATOM     18  C   UNL     1      51.507  51.876  20.061  1.00  0.00    +0.087 A 
ATOM     19  C   UNL     1      50.526  53.906  20.157  1.00  0.00    +0.050 A 
ATOM     20  C   UNL     1      52.039  52.533  21.147  1.00  0.00    +0.028 A 
ATOM     21  C   UNL     1      49.736  55.054  19.959  1.00  0.00    +0.053 A 
ATOM     22  C   UNL     1      51.428  53.812  21.220  1.00  0.00    -0.000 A 
ATOM     23  C   UNL     1      49.862  56.128  20.857  1.00  0.00    +0.044 A 
ATOM     24  C   UNL     1      51.551  54.899  22.103  1.00  0.00    +0.012 A 
ATOM     25  C   UNL     1      50.769  56.047  21.910  1.00  0.00    +0.027 A 
BRANCH  23  26
ATOM     26  N   UNL     1      49.054  57.258  20.613  1.00  0.00    -0.308 N 
ATOM     27  C   UNL     1      48.469  57.635  19.421  1.00  0.00    +0.319 C 
ATOM     28  O   UNL     1      48.618  57.101  18.330  1.00  0.00    -0.248 OA
ATOM     29  N   UNL     1      47.686  58.758  19.606  1.00  0.00    -0.334 N 
ATOM     30  H   UNL     1      49.017  57.952  21.343  1.00  0.00    +0.171 HD
ATOM     31  H   UNL     1      47.260  58.846  20.516  1.00  0.00    +0.165 HD
BRANCH  29  32
ATOM     32  C   UNL     1      46.920  59.310  18.509  1.00  0.00    +0.153 C 
BRANCH  32  33
ATOM     33  C   UNL     1      46.269  60.611  18.909  1.00  0.00    -0.029 A 
ATOM     34  C   UNL     1      47.025  61.642  19.484  1.00  0.00    +0.005 A 
ATOM     35  C   UNL     1      44.887  60.789  18.751  1.00  0.00    +0.005 A 
ATOM     36  C   UNL     1      46.413  62.834  19.878  1.00  0.00    +0.000 A 
ATOM     37  C   UNL     1      44.277  61.980  19.145  1.00  0.00    +0.000 A 
ATOM     38  C   UNL     1      45.039  63.002  19.708  1.00  0.00    +0.000 A 
ENDBRANCH  32  33
ENDBRANCH  29  32
ENDBRANCH  23  26
ENDBRANCH  16  17
ENDBRANCH   1  16
TORSDOF 10
ENDMDL
MODEL 5
REMARK VINA RESULT:    -8.424      3.553      6.686
REMARK INTER + INTRA:         -14.746
REMARK INTER:                 -13.859
REMARK INTRA:                  -0.887
REMARK UNBOUND:                -1.643
REMARK SMILES NC(=O)c1cn([C@@H](CO)CCn2ccc3ccc(NC(=O)NCc4ccccc4)cc32)cn1
REMARK SMILES IDX 10 1 7 2 6 3 4 4 5 5 33 6 32 7 2 8 1 9 3 10 8 13 9 14 11 16
REMARK SMILES IDX 12 17 13 18 31 19 14 20 30 21 15 22 18 23 16 24 17 25 19 26
REMARK SMILES IDX 20 27 21 28 22 29 23 32 24 33 25 34 29 35 26 36 28 37 27 38
REMARK H PARENT 1 11 1 12 9 15 19 30 22 31
ROOT
ATOM      1  C   UNL     1      47.322  59.103  20.202  1.00  0.00    +0.050 C 
ENDROOT
BRANCH   1   2
ATOM      2  C   UNL     1      46.731  59.494  18.828  1.00  0.00    +0.115 C 
BRANCH   2   3
ATOM      3  N   UNL     1      46.576  60.933  18.658  1.00  0.00    -0.331 N 
ATOM      4  C   UNL     1      46.212  62.932  17.847  1.00  0.00    +0.145 A 
ATOM      5  C   UNL     1      46.218  61.592  17.515  1.00  0.00    +0.121 A 
ATOM      6  N   UNL     1      46.547  63.087  19.185  1.00  0.00    -0.232 NA
ATOM      7  C   UNL     1      46.757  61.870  19.638  1.00  0.00    +0.200 A 
BRANCH   4   8
ATOM      8  C   UNL     1      45.913  64.050  16.956  1.00  0.00    +0.268 C 
ATOM      9  N   UNL     1      46.029  63.738  15.632  1.00  0.00    -0.364 N 
ATOM     10  O   UNL     1      45.577  65.167  17.336  1.00  0.00    -0.268 OA
ATOM     11  H   UNL     1      45.748  64.413  14.939  1.00  0.00    +0.160 HD
ATOM     12  H   UNL     1      46.227  62.777  15.375  1.00  0.00    +0.160 HD
ENDBRANCH   4   8
ENDBRANCH   2   3
BRANCH   2  13
ATOM     13  C   UNL     1      47.562  58.910  17.674  1.00  0.00    +0.181 C 
BRANCH  13  14
ATOM     14  O   UNL     1      46.748  58.139  16.793  1.00  0.00    -0.394 OA
ATOM     15  H   UNL     1      45.883  58.583  16.716  1.00  0.00    +0.210 HD
ENDBRANCH  13  14
ENDBRANCH   2  13
ENDBRANCH   1   2
BRANCH   1  16
ATOM     16  C   UNL     1      47.428  57.594  20.447  1.00  0.00    +0.124 C 
BRANCH  16  17
ATOM     17  N   UNL     1      48.736  57.161  20.909  1.00  0.00    -0.347 N 
ATOM     18  C   UNL     1      49.470  57.821  21.863  1.00  0.00    +0.087 A 
ATOM     19  C   UNL     1      49.425  56.049  20.466  1.00  0.00    +0.050 A 
ATOM     20  C   UNL     1      50.625  57.105  22.078  1.00  0.00    +0.028 A 
ATOM     21  C   UNL     1      49.115  55.089  19.484  1.00  0.00    +0.053 A 
ATOM     22  C   UNL     1      50.611  55.988  21.202  1.00  0.00    -0.000 A 
ATOM     23  C   UNL     1      50.025  54.045  19.245  1.00  0.00    +0.044 A 
ATOM     24  C   UNL     1      51.506  54.932  20.959  1.00  0.00    +0.012 A 
ATOM     25  C   UNL     1      51.202  53.970  19.985  1.00  0.00    +0.027 A 
BRANCH  23  26
ATOM     26  N   UNL     1      49.667  53.104  18.257  1.00  0.00    -0.308 N 
ATOM     27  C   UNL     1      49.733  51.728  18.339  1.00  0.00    +0.319 C 
ATOM     28  O   UNL     1      50.201  51.071  19.260  1.00  0.00    -0.248 OA
ATOM     29  N   UNL     1      49.217  51.154  17.195  1.00  0.00    -0.334 N 
ATOM     30  H   UNL     1      49.485  53.467  17.334  1.00  0.00    +0.171 HD
ATOM     31  H   UNL     1      48.482  51.675  16.741  1.00  0.00    +0.165 HD
BRANCH  29  32
ATOM     32  C   UNL     1      49.124  49.715  17.070  1.00  0.00    +0.153 C 
BRANCH  32  33
ATOM     33  C   UNL     1      47.733  49.235  17.401  1.00  0.00    -0.029 A 
ATOM     34  C   UNL     1      47.467  48.600  18.623  1.00  0.00    +0.005 A 
ATOM     35  C   UNL     1      46.694  49.378  16.469  1.00  0.00    +0.005 A 
ATOM     36  C   UNL     1      46.183  48.133  18.913  1.00  0.00    +0.000 A 
ATOM     37  C   UNL     1      45.412  48.911  16.761  1.00  0.00    +0.000 A 
ATOM     38  C   UNL     1      45.157  48.289  17.982  1.00  0.00    +0.000 A 
ENDBRANCH  32  33
ENDBRANCH  29  32
ENDBRANCH  23  26
ENDBRANCH  16  17
ENDBRANCH   1  16
TORSDOF 10
ENDMDL
