MODEL 1
REMARK VINA RESULT:    -6.948      0.000      0.000
REMARK INTER + INTRA:         -12.191
REMARK INTER:                 -11.415
REMARK INTRA:                  -0.776
REMARK UNBOUND:                -0.776
REMARK SMILES CCCCCCC(C(C)O)n1cnc(C(=O)NCCO)c1
REMARK SMILES IDX 7 1 6 2 5 3 4 4 3 5 2 6 1 7 8 8 9 9 10 10 11 12 12 13 21 14
REMARK SMILES IDX 13 15 14 16 15 17 16 18 17 19 18 21 19 22 20 23
REMARK H PARENT 10 11 17 20 20 24
ROOT
ATOM      1  C   UNL     1      51.524  57.594  20.816  1.00  0.00    +0.116 C 
ENDROOT
BRANCH   1   2
ATOM      2  C   UNL     1      50.416  57.902  21.851  1.00  0.00    +0.028 C 
BRANCH   2   3
ATOM      3  C   UNL     1      49.028  57.435  21.394  1.00  0.00    +0.002 C 
BRANCH   3   4
ATOM      4  C   UNL     1      48.673  57.891  19.975  1.00  0.00    +0.000 C 
BRANCH   4   5
ATOM      5  C   UNL     1      48.274  56.740  19.050  1.00  0.00    -0.000 C 
BRANCH   5   6
ATOM      6  C   UNL     1      48.328  55.398  19.780  1.00  0.00    -0.003 C 
ATOM      7  C   UNL     1      48.660  54.259  18.829  1.00  0.00    +0.004 C 
ENDBRANCH   5   6
ENDBRANCH   4   5
ENDBRANCH   3   4
ENDBRANCH   2   3
ENDBRANCH   1   2
BRANCH   1   8
ATOM      8  C   UNL     1      52.807  58.422  21.101  1.00  0.00    +0.134 C 
ATOM      9  C   UNL     1      54.095  57.685  20.750  1.00  0.00    +0.040 C 
BRANCH   8  10
ATOM     10  O   UNL     1      52.891  58.845  22.464  1.00  0.00    -0.391 OA
ATOM     11  H   UNL     1      53.831  58.965  22.686  1.00  0.00    +0.211 HD
ENDBRANCH   8  10
ENDBRANCH   1   8
BRANCH   1  12
ATOM     12  N   UNL     1      51.776  56.161  20.706  1.00  0.00    -0.331 N 
ATOM     13  C   UNL     1      51.803  55.282  21.752  1.00  0.00    +0.200 A 
ATOM     14  C   UNL     1      52.050  55.451  19.568  1.00  0.00    +0.121 A 
ATOM     15  N   UNL     1      52.075  54.065  21.347  1.00  0.00    -0.232 NA
ATOM     16  C   UNL     1      52.229  54.138  19.972  1.00  0.00    +0.146 A 
BRANCH  16  17
ATOM     17  C   UNL     1      52.540  52.966  19.141  1.00  0.00    +0.271 C 
ATOM     18  O   UNL     1      53.320  53.003  18.193  1.00  0.00    -0.267 OA
ATOM     19  N   UNL     1      51.905  51.796  19.520  1.00  0.00    -0.348 N 
ATOM     20  H   UNL     1      51.389  51.778  20.387  1.00  0.00    +0.163 HD
BRANCH  19  21
ATOM     21  C   UNL     1      52.150  50.544  18.835  1.00  0.00    +0.144 C 
BRANCH  21  22
ATOM     22  C   UNL     1      52.355  49.364  19.786  1.00  0.00    +0.177 C 
BRANCH  22  23
ATOM     23  O   UNL     1      53.711  49.325  20.221  1.00  0.00    -0.395 OA
ATOM     24  H   UNL     1      53.862  50.138  20.733  1.00  0.00    +0.210 HD
ENDBRANCH  22  23
ENDBRANCH  21  22
ENDBRANCH  19  21
ENDBRANCH  16  17
ENDBRANCH   1  12
TORSDOF 12
ENDMDL
MODEL 2
REMARK VINA RESULT:    -6.720      3.059      6.896
REMARK INTER + INTRA:         -11.817
REMARK INTER:                 -10.963
REMARK INTRA:                  -0.853
REMARK UNBOUND:                -0.776
REMARK SMILES CCCCCCC(C(C)O)n1cnc(C(=O)NCCO)c1
REMARK SMILES IDX 7 1 6 2 5 3 4 4 3 5 2 6 1 7 8 8 9 9 10 10 11 12 12 13 21 14
REMARK SMILES IDX 13 15 14 16 15 17 16 18 17 19 18 21 19 22 20 23
REMARK H PARENT 10 11 17 20 20 24
ROOT
ATOM      1  C   UNL     1      50.426  50.910  19.473  1.00  0.00    +0.116 C 
ENDROOT
BRANCH   1   2
ATOM      2  C   UNL     1      50.144  50.637  17.977  1.00  0.00    +0.028 C 
BRANCH   2   3
ATOM      3  C   UNL     1      48.666  50.814  17.608  1.00  0.00    +0.002 C 
BRANCH   3   4
ATOM      4  C   UNL     1      47.935  49.488  17.379  1.00  0.00    +0.000 C 
BRANCH   4   5
ATOM      5  C   UNL     1      47.466  48.822  18.674  1.00  0.00    -0.000 C 
BRANCH   5   6
ATOM      6  C   UNL     1      46.218  47.970  18.439  1.00  0.00    -0.003 C 
ATOM      7  C   UNL     1      45.139  48.753  17.710  1.00  0.00    +0.004 C 
ENDBRANCH   5   6
ENDBRANCH   4   5
ENDBRANCH   3   4
ENDBRANCH   2   3
ENDBRANCH   1   2
BRANCH   1   8
ATOM      8  C   UNL     1      51.316  49.797  20.092  1.00  0.00    +0.134 C 
ATOM      9  C   UNL     1      52.783  49.899  19.688  1.00  0.00    +0.040 C 
BRANCH   8  10
ATOM     10  O   UNL     1      50.853  48.485  19.765  1.00  0.00    -0.391 OA
ATOM     11  H   UNL     1      50.426  48.524  18.891  1.00  0.00    +0.211 HD
ENDBRANCH   8  10
ENDBRANCH   1   8
BRANCH   1  12
ATOM     12  N   UNL     1      50.952  52.254  19.687  1.00  0.00    -0.331 N 
ATOM     13  C   UNL     1      51.531  53.036  18.726  1.00  0.00    +0.200 A 
ATOM     14  C   UNL     1      50.988  52.955  20.862  1.00  0.00    +0.121 A 
ATOM     15  N   UNL     1      51.927  54.185  19.219  1.00  0.00    -0.232 NA
ATOM     16  C   UNL     1      51.591  54.167  20.564  1.00  0.00    +0.146 A 
BRANCH  16  17
ATOM     17  C   UNL     1      51.871  55.290  21.470  1.00  0.00    +0.271 C 
ATOM     18  O   UNL     1      52.045  55.151  22.678  1.00  0.00    -0.267 OA
ATOM     19  N   UNL     1      51.949  56.529  20.858  1.00  0.00    -0.348 N 
ATOM     20  H   UNL     1      51.943  56.578  19.850  1.00  0.00    +0.163 HD
BRANCH  19  21
ATOM     21  C   UNL     1      52.271  57.726  21.607  1.00  0.00    +0.144 C 
BRANCH  21  22
ATOM     22  C   UNL     1      53.773  57.994  21.701  1.00  0.00    +0.177 C 
BRANCH  22  23
ATOM     23  O   UNL     1      54.311  57.328  22.839  1.00  0.00    -0.395 OA
ATOM     24  H   UNL     1      54.086  57.872  23.612  1.00  0.00    +0.210 HD
ENDBRANCH  22  23
ENDBRANCH  21  22
ENDBRANCH  19  21
ENDBRANCH  16  17
ENDBRANCH   1  12
TORSDOF 12
ENDMDL
MODEL 3
REMARK VINA RESULT:    -6.654      1.861      2.462
REMARK INTER + INTRA:         -11.708
REMARK INTER:                 -10.876
REMARK INTRA:                  -0.832
REMARK UNBOUND:                -0.776
REMARK SMILES CCCCCCC(C(C)O)n1cnc(C(=O)NCCO)c1
REMARK SMILES IDX 7 1 6 2 5 3 4 4 3 5 2 6 1 7 8 8 9 9 10 10 11 12 12 13 21 14
REMARK SMILES IDX 13 15 14 16 15 17 16 18 17 19 18 21 19 22 20 23
REMARK H PARENT 10 11 17 20 20 24
ROOT
ATOM      1  C   UNL     1      51.687  56.758  21.134  1.00  0.00    +0.116 C 
ENDROOT
BRANCH   1   2
ATOM      2  C   UNL     1      50.406  57.393  21.725  1.00  0.00    +0.028 C 
BRANCH   2   3
ATOM      3  C   UNL     1      49.129  56.930  21.013  1.00  0.00    +0.002 C 
BRANCH   3   4
ATOM      4  C   UNL     1      48.016  57.982  21.020  1.00  0.00    +0.000 C 
BRANCH   4   5
ATOM      5  C   UNL     1      47.591  58.426  19.619  1.00  0.00    -0.000 C 
BRANCH   5   6
ATOM      6  C   UNL     1      47.218  59.909  19.597  1.00  0.00    -0.003 C 
ATOM      7  C   UNL     1      47.447  60.521  18.225  1.00  0.00    +0.004 C 
ENDBRANCH   5   6
ENDBRANCH   4   5
ENDBRANCH   3   4
ENDBRANCH   2   3
ENDBRANCH   1   2
BRANCH   1   8
ATOM      8  C   UNL     1      52.964  57.442  21.693  1.00  0.00    +0.134 C 
ATOM      9  C   UNL     1      52.856  58.961  21.768  1.00  0.00    +0.040 C 
BRANCH   8  10
ATOM     10  O   UNL     1      54.133  57.115  20.937  1.00  0.00    -0.391 OA
ATOM     11  H   UNL     1      54.114  57.631  20.113  1.00  0.00    +0.211 HD
ENDBRANCH   8  10
ENDBRANCH   1   8
BRANCH   1  12
ATOM     12  N   UNL     1      51.693  55.307  21.293  1.00  0.00    -0.331 N 
ATOM     13  C   UNL     1      51.633  54.645  22.486  1.00  0.00    +0.200 A 
ATOM     14  C   UNL     1      51.785  54.365  20.305  1.00  0.00    +0.121 A 
ATOM     15  N   UNL     1      51.679  53.345  22.315  1.00  0.00    -0.232 NA
ATOM     16  C   UNL     1      51.767  53.137  20.948  1.00  0.00    +0.146 A 
BRANCH  16  17
ATOM     17  C   UNL     1      51.835  51.796  20.348  1.00  0.00    +0.271 C 
ATOM     18  O   UNL     1      52.624  51.499  19.455  1.00  0.00    -0.267 OA
ATOM     19  N   UNL     1      50.956  50.872  20.884  1.00  0.00    -0.348 N 
ATOM     20  H   UNL     1      50.430  51.118  21.709  1.00  0.00    +0.163 HD
BRANCH  19  21
ATOM     21  C   UNL     1      50.939  49.494  20.438  1.00  0.00    +0.144 C 
BRANCH  21  22
ATOM     22  C   UNL     1      49.920  49.230  19.329  1.00  0.00    +0.177 C 
BRANCH  22  23
ATOM     23  O   UNL     1      50.450  49.653  18.077  1.00  0.00    -0.395 OA
ATOM     24  H   UNL     1      50.760  50.566  18.201  1.00  0.00    +0.210 HD
ENDBRANCH  22  23
ENDBRANCH  21  22
ENDBRANCH  19  21
ENDBRANCH  16  17
ENDBRANCH   1  12
TORSDOF 12
ENDMDL
MODEL 4
REMARK VINA RESULT:    -6.535      4.076      5.783
REMARK INTER + INTRA:         -11.513
REMARK INTER:                 -10.584
REMARK INTRA:                  -0.929
REMARK UNBOUND:                -0.776
REMARK SMILES CCCCCCC(C(C)O)n1cnc(C(=O)NCCO)c1
REMARK SMILES IDX 7 1 6 2 5 3 4 4 3 5 2 6 1 7 8 8 9 9 10 10 11 12 12 13 21 14
REMARK SMILES IDX 13 15 14 16 15 17 16 18 17 19 18 21 19 22 20 23
REMARK H PARENT 10 11 17 20 20 24
ROOT
ATOM      1  C   UNL     1      50.600  52.819  18.728  1.00  0.00    +0.116 C 
ENDROOT
BRANCH   1   2
ATOM      2  C   UNL     1      49.857  53.721  19.741  1.00  0.00    +0.028 C 
BRANCH   2   3
ATOM      3  C   UNL     1      48.661  54.455  19.120  1.00  0.00    +0.002 C 
BRANCH   3   4
ATOM      4  C   UNL     1      48.253  55.712  19.896  1.00  0.00    +0.000 C 
BRANCH   4   5
ATOM      5  C   UNL     1      49.371  56.751  19.999  1.00  0.00    -0.000 C 
BRANCH   5   6
ATOM      6  C   UNL     1      49.580  57.198  21.446  1.00  0.00    -0.003 C 
ATOM      7  C   UNL     1      50.827  56.571  22.048  1.00  0.00    +0.004 C 
ENDBRANCH   5   6
ENDBRANCH   4   5
ENDBRANCH   3   4
ENDBRANCH   2   3
ENDBRANCH   1   2
BRANCH   1   8
ATOM      8  C   UNL     1      52.140  52.959  18.871  1.00  0.00    +0.134 C 
ATOM      9  C   UNL     1      52.579  54.323  19.392  1.00  0.00    +0.040 C 
BRANCH   8  10
ATOM     10  O   UNL     1      52.826  52.709  17.642  1.00  0.00    -0.391 OA
ATOM     11  H   UNL     1      52.714  53.487  17.069  1.00  0.00    +0.211 HD
ENDBRANCH   8  10
ENDBRANCH   1   8
BRANCH   1  12
ATOM     12  N   UNL     1      50.137  51.436  18.796  1.00  0.00    -0.331 N 
ATOM     13  C   UNL     1      50.589  50.497  19.680  1.00  0.00    +0.200 A 
ATOM     14  C   UNL     1      49.209  50.830  17.993  1.00  0.00    +0.121 A 
ATOM     15  N   UNL     1      50.005  49.339  19.488  1.00  0.00    -0.232 NA
ATOM     16  C   UNL     1      49.123  49.520  18.434  1.00  0.00    +0.146 A 
BRANCH  16  17
ATOM     17  C   UNL     1      48.268  48.441  17.916  1.00  0.00    +0.271 C 
ATOM     18  O   UNL     1      48.661  47.601  17.111  1.00  0.00    -0.267 OA
ATOM     19  N   UNL     1      46.981  48.421  18.424  1.00  0.00    -0.348 N 
ATOM     20  H   UNL     1      46.747  49.038  19.188  1.00  0.00    +0.163 HD
BRANCH  19  21
ATOM     21  C   UNL     1      46.035  47.388  18.054  1.00  0.00    +0.144 C 
BRANCH  21  22
ATOM     22  C   UNL     1      44.644  47.600  18.653  1.00  0.00    +0.177 C 
BRANCH  22  23
ATOM     23  O   UNL     1      44.284  46.472  19.443  1.00  0.00    -0.395 OA
ATOM     24  H   UNL     1      44.358  45.693  18.867  1.00  0.00    +0.210 HD
ENDBRANCH  22  23
ENDBRANCH  21  22
ENDBRANCH  19  21
ENDBRANCH  16  17
ENDBRANCH   1  12
TORSDOF 12
ENDMDL
MODEL 5
REMARK VINA RESULT:    -6.505      2.152      6.396
REMARK INTER + INTRA:         -11.464
REMARK INTER:                 -10.462
REMARK INTRA:                  -1.001
REMARK UNBOUND:                -0.776
REMARK SMILES CCCCCCC(C(C)O)n1cnc(C(=O)NCCO)c1
REMARK SMILES IDX 7 1 6 2 5 3 4 4 3 5 2 6 1 7 8 8 9 9 10 10 11 12 12 13 21 14
REMARK SMILES IDX 13 15 14 16 15 17 16 18 17 19 18 21 19 22 20 23
REMARK H PARENT 10 11 17 20 20 24
ROOT
ATOM      1  C   UNL     1      50.437  50.810  19.242  1.00  0.00    +0.116 C 
ENDROOT
BRANCH   1   2
ATOM      2  C   UNL     1      50.102  50.490  17.766  1.00  0.00    +0.028 C 
BRANCH   2   3
ATOM      3  C   UNL     1      48.695  49.904  17.588  1.00  0.00    +0.002 C 
BRANCH   3   4
ATOM      4  C   UNL     1      47.829  50.698  16.605  1.00  0.00    +0.000 C 
BRANCH   4   5
ATOM      5  C   UNL     1      47.290  52.005  17.189  1.00  0.00    -0.000 C 
BRANCH   5   6
ATOM      6  C   UNL     1      47.934  53.219  16.517  1.00  0.00    -0.003 C 
ATOM      7  C   UNL     1      48.566  54.150  17.538  1.00  0.00    +0.004 C 
ENDBRANCH   5   6
ENDBRANCH   4   5
ENDBRANCH   3   4
ENDBRANCH   2   3
ENDBRANCH   1   2
BRANCH   1   8
ATOM      8  C   UNL     1      51.227  49.650  19.906  1.00  0.00    +0.134 C 
ATOM      9  C   UNL     1      50.439  48.921  20.989  1.00  0.00    +0.040 C 
BRANCH   8  10
ATOM     10  O   UNL     1      52.464  50.088  20.473  1.00  0.00    -0.391 OA
ATOM     11  H   UNL     1      53.185  49.797  19.887  1.00  0.00    +0.211 HD
ENDBRANCH   8  10
ENDBRANCH   1   8
BRANCH   1  12
ATOM     12  N   UNL     1      51.094  52.107  19.376  1.00  0.00    -0.331 N 
ATOM     13  C   UNL     1      51.948  52.656  18.462  1.00  0.00    +0.200 A 
ATOM     14  C   UNL     1      51.002  52.979  20.427  1.00  0.00    +0.121 A 
ATOM     15  N   UNL     1      52.399  53.819  18.867  1.00  0.00    -0.232 NA
ATOM     16  C   UNL     1      51.813  54.054  20.101  1.00  0.00    +0.146 A 
BRANCH  16  17
ATOM     17  C   UNL     1      52.067  55.272  20.885  1.00  0.00    +0.271 C 
ATOM     18  O   UNL     1      52.079  55.289  22.113  1.00  0.00    -0.267 OA
ATOM     19  N   UNL     1      52.321  56.407  20.135  1.00  0.00    -0.348 N 
ATOM     20  H   UNL     1      52.444  56.317  19.137  1.00  0.00    +0.163 HD
BRANCH  19  21
ATOM     21  C   UNL     1      52.643  57.673  20.760  1.00  0.00    +0.144 C 
BRANCH  21  22
ATOM     22  C   UNL     1      54.119  57.803  21.137  1.00  0.00    +0.177 C 
BRANCH  22  23
ATOM     23  O   UNL     1      54.294  57.491  22.515  1.00  0.00    -0.395 OA
ATOM     24  H   UNL     1      54.158  58.318  23.007  1.00  0.00    +0.210 HD
ENDBRANCH  22  23
ENDBRANCH  21  22
ENDBRANCH  19  21
ENDBRANCH  16  17
ENDBRANCH   1  12
TORSDOF 12
ENDMDL
