MODEL 1
REMARK VINA RESULT:    -7.076      0.000      0.000
REMARK INTER + INTRA:         -11.452
REMARK INTER:                 -10.593
REMARK INTRA:                  -0.859
REMARK UNBOUND:                -0.859
REMARK SMILES CCCCCCC(C(C)O)n1cnc(C(N)=O)c1Cl
REMARK SMILES IDX 5 1 4 2 3 3 2 4 1 5 6 6 7 7 8 8 9 9 10 10 11 12 12 13 18 14
REMARK SMILES IDX 13 15 14 16 19 17 15 18 16 19 17 20
REMARK H PARENT 10 11 16 21 16 22
ROOT
ATOM      1  C   UNL     1      48.343  54.714  19.683  1.00  0.00    +0.002 C 
ENDROOT
BRANCH   1   2
ATOM      2  C   UNL     1      48.523  56.218  19.463  1.00  0.00    +0.000 C 
BRANCH   2   3
ATOM      3  C   UNL     1      47.490  57.020  20.257  1.00  0.00    -0.000 C 
BRANCH   3   4
ATOM      4  C   UNL     1      48.094  58.312  20.808  1.00  0.00    -0.003 C 
ATOM      5  C   UNL     1      49.159  58.026  21.854  1.00  0.00    +0.004 C 
ENDBRANCH   3   4
ENDBRANCH   2   3
ENDBRANCH   1   2
BRANCH   1   6
ATOM      6  C   UNL     1      49.643  53.912  19.549  1.00  0.00    +0.028 C 
BRANCH   6   7
ATOM      7  C   UNL     1      50.613  53.957  20.758  1.00  0.00    +0.118 C 
BRANCH   7   8
ATOM      8  C   UNL     1      51.430  52.666  21.023  1.00  0.00    +0.134 C 
ATOM      9  C   UNL     1      51.227  51.554  20.000  1.00  0.00    +0.040 C 
BRANCH   8  10
ATOM     10  O   UNL     1      51.109  52.151  22.318  1.00  0.00    -0.391 OA
ATOM     11  H   UNL     1      51.064  52.904  22.935  1.00  0.00    +0.211 HD
ENDBRANCH   8  10
ENDBRANCH   7   8
BRANCH   7  12
ATOM     12  N   UNL     1      51.507  55.124  20.704  1.00  0.00    -0.315 N 
ATOM     13  C   UNL     1      52.016  55.696  19.565  1.00  0.00    +0.201 A 
ATOM     14  C   UNL     1      52.020  55.837  21.756  1.00  0.00    +0.142 A 
ATOM     15  N   UNL     1      52.799  56.718  19.830  1.00  0.00    -0.230 NA
ATOM     16  C   UNL     1      52.813  56.825  21.218  1.00  0.00    +0.165 A 
ATOM     17 Cl   UNL     1      51.661  55.428  23.369  1.00  0.00    -0.062 Cl
BRANCH  16  18
ATOM     18  C   UNL     1      53.581  57.850  21.916  1.00  0.00    +0.270 C 
ATOM     19  N   UNL     1      52.839  58.951  22.243  1.00  0.00    -0.364 N 
ATOM     20  O   UNL     1      54.769  57.774  22.202  1.00  0.00    -0.268 OA
ATOM     21  H   UNL     1      53.270  59.707  22.749  1.00  0.00    +0.160 HD
ATOM     22  H   UNL     1      51.852  58.970  22.012  1.00  0.00    +0.160 HD
ENDBRANCH  16  18
ENDBRANCH   7  12
ENDBRANCH   6   7
ENDBRANCH   1   6
TORSDOF 9
ENDMDL
MODEL 2
REMARK VINA RESULT:    -6.860      5.173      7.127
REMARK INTER + INTRA:         -11.129
REMARK INTER:                 -10.526
REMARK INTRA:                  -0.602
REMARK UNBOUND:                -0.859
REMARK SMILES CCCCCCC(C(C)O)n1cnc(C(N)=O)c1Cl
REMARK SMILES IDX 5 1 4 2 3 3 2 4 1 5 6 6 7 7 8 8 9 9 10 10 11 12 12 13 18 14
REMARK SMILES IDX 13 15 14 16 19 17 15 18 16 19 17 20
REMARK H PARENT 10 11 16 21 16 22
ROOT
ATOM      1  C   UNL     1      46.812  49.281  17.741  1.00  0.00    +0.002 C 
ENDROOT
BRANCH   1   2
ATOM      2  C   UNL     1      45.333  49.317  17.352  1.00  0.00    +0.000 C 
BRANCH   2   3
ATOM      3  C   UNL     1      44.626  48.019  17.746  1.00  0.00    -0.000 C 
BRANCH   3   4
ATOM      4  C   UNL     1      45.312  47.353  18.940  1.00  0.00    -0.003 C 
ATOM      5  C   UNL     1      44.301  46.907  19.984  1.00  0.00    +0.004 C 
ENDBRANCH   3   4
ENDBRANCH   2   3
ENDBRANCH   1   2
BRANCH   1   6
ATOM      6  C   UNL     1      47.625  50.456  17.182  1.00  0.00    +0.028 C 
BRANCH   6   7
ATOM      7  C   UNL     1      49.168  50.298  17.193  1.00  0.00    +0.118 C 
BRANCH   7   8
ATOM      8  C   UNL     1      49.884  50.529  15.838  1.00  0.00    +0.134 C 
ATOM      9  C   UNL     1      49.317  49.736  14.665  1.00  0.00    +0.040 C 
BRANCH   8  10
ATOM     10  O   UNL     1      51.272  50.210  15.967  1.00  0.00    -0.391 OA
ATOM     11  H   UNL     1      51.441  49.402  15.451  1.00  0.00    +0.211 HD
ENDBRANCH   8  10
ENDBRANCH   7   8
BRANCH   7  12
ATOM     12  N   UNL     1      49.797  51.107  18.247  1.00  0.00    -0.315 N 
ATOM     13  C   UNL     1      49.914  52.475  18.251  1.00  0.00    +0.201 A 
ATOM     14  C   UNL     1      50.405  50.666  19.394  1.00  0.00    +0.142 A 
ATOM     15  N   UNL     1      50.539  52.916  19.319  1.00  0.00    -0.230 NA
ATOM     16  C   UNL     1      50.858  51.781  20.060  1.00  0.00    +0.165 A 
ATOM     17 Cl   UNL     1      50.513  49.007  19.762  1.00  0.00    -0.062 Cl
BRANCH  16  18
ATOM     18  C   UNL     1      51.569  51.850  21.331  1.00  0.00    +0.270 C 
ATOM     19  N   UNL     1      52.458  50.826  21.508  1.00  0.00    -0.364 N 
ATOM     20  O   UNL     1      51.419  52.718  22.182  1.00  0.00    -0.268 OA
ATOM     21  H   UNL     1      53.018  50.795  22.344  1.00  0.00    +0.160 HD
ATOM     22  H   UNL     1      52.574  50.139  20.773  1.00  0.00    +0.160 HD
ENDBRANCH  16  18
ENDBRANCH   7  12
ENDBRANCH   6   7
ENDBRANCH   1   6
TORSDOF 9
ENDMDL
MODEL 3
REMARK VINA RESULT:    -6.583      2.315      4.701
REMARK INTER + INTRA:         -10.713
REMARK INTER:                 -10.076
REMARK INTRA:                  -0.637
REMARK UNBOUND:                -0.859
REMARK SMILES CCCCCCC(C(C)O)n1cnc(C(N)=O)c1Cl
REMARK SMILES IDX 5 1 4 2 3 3 2 4 1 5 6 6 7 7 8 8 9 9 10 10 11 12 12 13 18 14
REMARK SMILES IDX 13 15 14 16 19 17 15 18 16 19 17 20
REMARK H PARENT 10 11 16 21 16 22
ROOT
ATOM      1  C   UNL     1      49.678  55.120  19.295  1.00  0.00    +0.002 C 
ENDROOT
BRANCH   1   2
ATOM      2  C   UNL     1      48.613  55.724  20.214  1.00  0.00    +0.000 C 
BRANCH   2   3
ATOM      3  C   UNL     1      48.753  57.245  20.297  1.00  0.00    -0.000 C 
BRANCH   3   4
ATOM      4  C   UNL     1      47.403  57.914  20.562  1.00  0.00    -0.003 C 
ATOM      5  C   UNL     1      47.249  59.193  19.757  1.00  0.00    +0.004 C 
ENDBRANCH   3   4
ENDBRANCH   2   3
ENDBRANCH   1   2
BRANCH   1   6
ATOM      6  C   UNL     1      50.911  56.014  19.111  1.00  0.00    +0.028 C 
BRANCH   6   7
ATOM      7  C   UNL     1      52.164  55.646  19.948  1.00  0.00    +0.118 C 
BRANCH   7   8
ATOM      8  C   UNL     1      52.607  56.691  21.004  1.00  0.00    +0.134 C 
ATOM      9  C   UNL     1      51.942  58.057  20.877  1.00  0.00    +0.040 C 
BRANCH   8  10
ATOM     10  O   UNL     1      54.024  56.872  20.935  1.00  0.00    -0.391 OA
ATOM     11  H   UNL     1      54.395  56.653  21.809  1.00  0.00    +0.211 HD
ENDBRANCH   8  10
ENDBRANCH   7   8
BRANCH   7  12
ATOM     12  N   UNL     1      52.044  54.316  20.565  1.00  0.00    -0.315 N 
ATOM     13  C   UNL     1      51.661  54.061  21.858  1.00  0.00    +0.201 A 
ATOM     14  C   UNL     1      52.311  53.099  19.995  1.00  0.00    +0.142 A 
ATOM     15  N   UNL     1      51.661  52.776  22.131  1.00  0.00    -0.230 NA
ATOM     16  C   UNL     1      52.069  52.146  20.958  1.00  0.00    +0.165 A 
ATOM     17 Cl   UNL     1      52.855  52.970  18.387  1.00  0.00    -0.062 Cl
BRANCH  16  18
ATOM     18  C   UNL     1      52.201  50.698  20.852  1.00  0.00    +0.270 C 
ATOM     19  N   UNL     1      51.201  50.017  21.488  1.00  0.00    -0.364 N 
ATOM     20  O   UNL     1      53.100  50.109  20.263  1.00  0.00    -0.268 OA
ATOM     21  H   UNL     1      51.187  49.010  21.454  1.00  0.00    +0.160 HD
ATOM     22  H   UNL     1      50.461  50.536  21.945  1.00  0.00    +0.160 HD
ENDBRANCH  16  18
ENDBRANCH   7  12
ENDBRANCH   6   7
ENDBRANCH   1   6
TORSDOF 9
ENDMDL
MODEL 4
REMARK VINA RESULT:    -6.533      2.117      4.609
REMARK INTER + INTRA:         -10.638
REMARK INTER:                 -10.033
REMARK INTRA:                  -0.605
REMARK UNBOUND:                -0.859
REMARK SMILES CCCCCCC(C(C)O)n1cnc(C(N)=O)c1Cl
REMARK SMILES IDX 5 1 4 2 3 3 2 4 1 5 6 6 7 7 8 8 9 9 10 10 11 12 12 13 18 14
REMARK SMILES IDX 13 15 14 16 19 17 15 18 16 19 17 20
REMARK H PARENT 10 11 16 21 16 22
ROOT
ATOM      1  C   UNL     1      48.308  57.934  21.382  1.00  0.00    +0.002 C 
ENDROOT
BRANCH   1   2
ATOM      2  C   UNL     1      48.127  57.319  19.992  1.00  0.00    +0.000 C 
BRANCH   2   3
ATOM      3  C   UNL     1      47.959  58.403  18.926  1.00  0.00    -0.000 C 
BRANCH   3   4
ATOM      4  C   UNL     1      47.191  59.607  19.473  1.00  0.00    -0.003 C 
ATOM      5  C   UNL     1      47.210  60.770  18.495  1.00  0.00    +0.004 C 
ENDBRANCH   3   4
ENDBRANCH   2   3
ENDBRANCH   1   2
BRANCH   1   6
ATOM      6  C   UNL     1      49.691  57.678  21.994  1.00  0.00    +0.028 C 
BRANCH   6   7
ATOM      7  C   UNL     1      50.751  57.032  21.065  1.00  0.00    +0.118 C 
BRANCH   7   8
ATOM      8  C   UNL     1      52.071  57.826  20.886  1.00  0.00    +0.134 C 
ATOM      9  C   UNL     1      53.241  57.016  20.340  1.00  0.00    +0.040 C 
BRANCH   8  10
ATOM     10  O   UNL     1      52.463  58.396  22.138  1.00  0.00    -0.391 OA
ATOM     11  H   UNL     1      53.423  58.554  22.105  1.00  0.00    +0.211 HD
ENDBRANCH   8  10
ENDBRANCH   7   8
BRANCH   7  12
ATOM     12  N   UNL     1      51.040  55.641  21.443  1.00  0.00    -0.315 N 
ATOM     13  C   UNL     1      51.589  55.226  22.631  1.00  0.00    +0.201 A 
ATOM     14  C   UNL     1      50.852  54.511  20.690  1.00  0.00    +0.142 A 
ATOM     15  N   UNL     1      51.746  53.922  22.676  1.00  0.00    -0.230 NA
ATOM     16  C   UNL     1      51.281  53.448  21.453  1.00  0.00    +0.165 A 
ATOM     17 Cl   UNL     1      50.217  54.588  19.113  1.00  0.00    -0.062 Cl
BRANCH  16  18
ATOM     18  C   UNL     1      51.289  52.031  21.107  1.00  0.00    +0.270 C 
ATOM     19  N   UNL     1      52.146  51.294  21.876  1.00  0.00    -0.364 N 
ATOM     20  O   UNL     1      50.615  51.512  20.227  1.00  0.00    -0.268 OA
ATOM     21  H   UNL     1      52.209  50.299  21.734  1.00  0.00    +0.160 HD
ATOM     22  H   UNL     1      52.671  51.753  22.612  1.00  0.00    +0.160 HD
ENDBRANCH  16  18
ENDBRANCH   7  12
ENDBRANCH   6   7
ENDBRANCH   1   6
TORSDOF 9
ENDMDL
MODEL 5
REMARK VINA RESULT:    -6.412      4.038      6.333
REMARK INTER + INTRA:         -10.458
REMARK INTER:                  -9.570
REMARK INTRA:                  -0.888
REMARK UNBOUND:                -0.859
REMARK SMILES CCCCCCC(C(C)O)n1cnc(C(N)=O)c1Cl
REMARK SMILES IDX 5 1 4 2 3 3 2 4 1 5 6 6 7 7 8 8 9 9 10 10 11 12 12 13 18 14
REMARK SMILES IDX 13 15 14 16 19 17 15 18 16 19 17 20
REMARK H PARENT 10 11 16 21 16 22
ROOT
ATOM      1  C   UNL     1      48.449  54.992  19.585  1.00  0.00    +0.002 C 
ENDROOT
BRANCH   1   2
ATOM      2  C   UNL     1      48.903  56.454  19.573  1.00  0.00    +0.000 C 
BRANCH   2   3
ATOM      3  C   UNL     1      47.819  57.373  20.141  1.00  0.00    -0.000 C 
BRANCH   3   4
ATOM      4  C   UNL     1      48.302  58.088  21.403  1.00  0.00    -0.003 C 
ATOM      5  C   UNL     1      49.729  57.697  21.753  1.00  0.00    +0.004 C 
ENDBRANCH   3   4
ENDBRANCH   2   3
ENDBRANCH   1   2
BRANCH   1   6
ATOM      6  C   UNL     1      49.522  54.018  20.088  1.00  0.00    +0.028 C 
BRANCH   6   7
ATOM      7  C   UNL     1      50.413  53.351  19.008  1.00  0.00    +0.118 C 
BRANCH   7   8
ATOM      8  C   UNL     1      51.943  53.517  19.192  1.00  0.00    +0.134 C 
ATOM      9  C   UNL     1      52.391  54.901  19.647  1.00  0.00    +0.040 C 
BRANCH   8  10
ATOM     10  O   UNL     1      52.611  53.207  17.966  1.00  0.00    -0.391 OA
ATOM     11  H   UNL     1      52.596  52.240  17.854  1.00  0.00    +0.211 HD
ENDBRANCH   8  10
ENDBRANCH   7   8
BRANCH   7  12
ATOM     12  N   UNL     1      50.073  51.933  18.813  1.00  0.00    -0.315 N 
ATOM     13  C   UNL     1      50.546  50.882  19.559  1.00  0.00    +0.201 A 
ATOM     14  C   UNL     1      49.260  51.389  17.853  1.00  0.00    +0.142 A 
ATOM     15  N   UNL     1      50.079  49.727  19.140  1.00  0.00    -0.230 NA
ATOM     16  C   UNL     1      49.257  50.029  18.057  1.00  0.00    +0.165 A 
ATOM     17 Cl   UNL     1      48.491  52.360  16.685  1.00  0.00    -0.062 Cl
BRANCH  16  18
ATOM     18  C   UNL     1      48.546  49.002  17.305  1.00  0.00    +0.270 C 
ATOM     19  N   UNL     1      48.975  47.734  17.584  1.00  0.00    -0.364 N 
ATOM     20  O   UNL     1      47.650  49.208  16.496  1.00  0.00    -0.268 OA
ATOM     21  H   UNL     1      48.530  46.950  17.134  1.00  0.00    +0.160 HD
ATOM     22  H   UNL     1      49.702  47.599  18.276  1.00  0.00    +0.160 HD
ENDBRANCH  16  18
ENDBRANCH   7  12
ENDBRANCH   6   7
ENDBRANCH   1   6
TORSDOF 9
ENDMDL
