MODEL 1
REMARK VINA RESULT:    -6.989      0.000      0.000
REMARK INTER + INTRA:         -11.306
REMARK INTER:                 -10.462
REMARK INTRA:                  -0.844
REMARK UNBOUND:                -0.844
REMARK SMILES CCCCCC[C@H]([C@H](C)O)n1c(O)nc2c(N)ncnc21
REMARK SMILES IDX 5 1 4 2 3 3 2 4 1 5 6 6 7 7 8 8 9 9 10 10 11 12 12 13 21 14
REMARK SMILES IDX 14 15 20 16 15 17 19 18 16 19 18 20 13 21 17 23
REMARK H PARENT 10 11 13 22 17 24 17 25
ROOT
ATOM      1  C   UNL     1      48.547  55.623  19.972  1.00  0.00    +0.002 C 
ENDROOT
BRANCH   1   2
ATOM      2  C   UNL     1      48.352  56.758  18.963  1.00  0.00    +0.000 C 
BRANCH   2   3
ATOM      3  C   UNL     1      48.325  58.148  19.607  1.00  0.00    -0.000 C 
BRANCH   3   4
ATOM      4  C   UNL     1      47.833  58.198  21.056  1.00  0.00    -0.003 C 
ATOM      5  C   UNL     1      48.947  58.397  22.071  1.00  0.00    +0.004 C 
ENDBRANCH   3   4
ENDBRANCH   2   3
ENDBRANCH   1   2
BRANCH   1   6
ATOM      6  C   UNL     1      49.687  54.696  19.548  1.00  0.00    +0.028 C 
BRANCH   6   7
ATOM      7  C   UNL     1      50.959  54.804  20.420  1.00  0.00    +0.122 C 
BRANCH   7   8
ATOM      8  C   UNL     1      52.073  55.757  19.913  1.00  0.00    +0.134 C 
ATOM      9  C   UNL     1      52.052  57.120  20.599  1.00  0.00    +0.040 C 
BRANCH   8  10
ATOM     10  O   UNL     1      51.999  55.970  18.503  1.00  0.00    -0.391 OA
ATOM     11  H   UNL     1      52.809  56.464  18.253  1.00  0.00    +0.211 HD
ENDBRANCH   8  10
ENDBRANCH   7   8
BRANCH   7  12
ATOM     12  N   UNL     1      51.505  53.456  20.630  1.00  0.00    -0.273 N 
ATOM     13  C   UNL     1      51.712  52.843  21.834  1.00  0.00    +0.296 A 
ATOM     14  C   UNL     1      51.893  52.563  19.664  1.00  0.00    +0.168 A 
ATOM     15  N   UNL     1      52.197  51.633  21.727  1.00  0.00    -0.190 NA
ATOM     16  N   UNL     1      51.887  52.735  18.330  1.00  0.00    -0.216 NA
ATOM     17  C   UNL     1      52.307  51.438  20.363  1.00  0.00    +0.154 A 
ATOM     18  C   UNL     1      52.344  51.630  17.703  1.00  0.00    +0.226 A 
ATOM     19  C   UNL     1      52.758  50.350  19.596  1.00  0.00    +0.155 A 
ATOM     20  N   UNL     1      52.779  50.474  18.250  1.00  0.00    -0.217 NA
BRANCH  13  21
ATOM     21  O   UNL     1      51.455  53.391  23.003  1.00  0.00    -0.480 OA
ATOM     22  H   UNL     1      52.024  54.183  22.986  1.00  0.00    +0.296 HD
ENDBRANCH  13  21
BRANCH  19  23
ATOM     23  N   UNL     1      53.203  49.159  20.151  1.00  0.00    -0.382 N 
ATOM     24  H   UNL     1      52.546  48.735  20.796  1.00  0.00    +0.158 HD
ATOM     25  H   UNL     1      54.175  49.205  20.429  1.00  0.00    +0.158 HD
ENDBRANCH  19  23
ENDBRANCH   7  12
ENDBRANCH   6   7
ENDBRANCH   1   6
TORSDOF 10
ENDMDL
MODEL 2
REMARK VINA RESULT:    -6.680      3.726      6.117
REMARK INTER + INTRA:         -10.844
REMARK INTER:                 -10.373
REMARK INTRA:                  -0.471
REMARK UNBOUND:                -0.844
REMARK SMILES CCCCCC[C@H]([C@H](C)O)n1c(O)nc2c(N)ncnc21
REMARK SMILES IDX 5 1 4 2 3 3 2 4 1 5 6 6 7 7 8 8 9 9 10 10 11 12 12 13 21 14
REMARK SMILES IDX 14 15 20 16 15 17 19 18 16 19 18 20 13 21 17 23
REMARK H PARENT 10 11 13 22 17 24 17 25
ROOT
ATOM      1  C   UNL     1      49.112  50.099  18.353  1.00  0.00    +0.002 C 
ENDROOT
BRANCH   1   2
ATOM      2  C   UNL     1      48.275  48.871  18.721  1.00  0.00    +0.000 C 
BRANCH   2   3
ATOM      3  C   UNL     1      46.831  48.942  18.211  1.00  0.00    -0.000 C 
BRANCH   3   4
ATOM      4  C   UNL     1      45.890  47.853  18.731  1.00  0.00    -0.003 C 
ATOM      5  C   UNL     1      44.541  47.828  18.028  1.00  0.00    +0.004 C 
ENDBRANCH   3   4
ENDBRANCH   2   3
ENDBRANCH   1   2
BRANCH   1   6
ATOM      6  C   UNL     1      50.162  50.393  19.425  1.00  0.00    +0.028 C 
BRANCH   6   7
ATOM      7  C   UNL     1      51.229  51.431  19.008  1.00  0.00    +0.122 C 
BRANCH   7   8
ATOM      8  C   UNL     1      52.592  50.873  18.518  1.00  0.00    +0.134 C 
ATOM      9  C   UNL     1      52.666  50.721  17.002  1.00  0.00    +0.040 C 
BRANCH   8  10
ATOM     10  O   UNL     1      52.897  49.607  19.105  1.00  0.00    -0.391 OA
ATOM     11  H   UNL     1      52.556  48.924  18.488  1.00  0.00    +0.211 HD
ENDBRANCH   8  10
ENDBRANCH   7   8
BRANCH   7  12
ATOM     12  N   UNL     1      51.438  52.367  20.121  1.00  0.00    -0.273 N 
ATOM     13  C   UNL     1      51.832  52.045  21.390  1.00  0.00    +0.296 A 
ATOM     14  C   UNL     1      51.291  53.731  20.092  1.00  0.00    +0.168 A 
ATOM     15  N   UNL     1      51.954  53.082  22.178  1.00  0.00    -0.190 NA
ATOM     16  N   UNL     1      50.900  54.496  19.057  1.00  0.00    -0.216 NA
ATOM     17  C   UNL     1      51.627  54.154  21.370  1.00  0.00    +0.154 A 
ATOM     18  C   UNL     1      50.874  55.800  19.410  1.00  0.00    +0.226 A 
ATOM     19  C   UNL     1      51.564  55.536  21.612  1.00  0.00    +0.155 A 
ATOM     20  N   UNL     1      51.169  56.351  20.607  1.00  0.00    -0.217 NA
BRANCH  13  21
ATOM     21  O   UNL     1      52.075  50.819  21.805  1.00  0.00    -0.480 OA
ATOM     22  H   UNL     1      51.949  50.299  20.990  1.00  0.00    +0.296 HD
ENDBRANCH  13  21
BRANCH  19  23
ATOM     23  N   UNL     1      51.869  56.110  22.838  1.00  0.00    -0.382 N 
ATOM     24  H   UNL     1      51.713  57.111  22.874  1.00  0.00    +0.158 HD
ATOM     25  H   UNL     1      52.733  55.752  23.224  1.00  0.00    +0.158 HD
ENDBRANCH  19  23
ENDBRANCH   7  12
ENDBRANCH   6   7
ENDBRANCH   1   6
TORSDOF 10
ENDMDL
MODEL 3
REMARK VINA RESULT:    -6.223      2.612      2.919
REMARK INTER + INTRA:         -10.160
REMARK INTER:                 -10.021
REMARK INTRA:                  -0.138
REMARK UNBOUND:                -0.844
REMARK SMILES CCCCCC[C@H]([C@H](C)O)n1c(O)nc2c(N)ncnc21
REMARK SMILES IDX 5 1 4 2 3 3 2 4 1 5 6 6 7 7 8 8 9 9 10 10 11 12 12 13 21 14
REMARK SMILES IDX 14 15 20 16 15 17 19 18 16 19 18 20 13 21 17 23
REMARK H PARENT 10 11 13 22 17 24 17 25
ROOT
ATOM      1  C   UNL     1      48.797  54.614  20.125  1.00  0.00    +0.002 C 
ENDROOT
BRANCH   1   2
ATOM      2  C   UNL     1      49.108  56.109  20.225  1.00  0.00    +0.000 C 
BRANCH   2   3
ATOM      3  C   UNL     1      47.867  57.000  20.106  1.00  0.00    -0.000 C 
BRANCH   3   4
ATOM      4  C   UNL     1      47.859  58.248  20.991  1.00  0.00    -0.003 C 
ATOM      5  C   UNL     1      48.995  58.286  22.002  1.00  0.00    +0.004 C 
ENDBRANCH   3   4
ENDBRANCH   2   3
ENDBRANCH   1   2
BRANCH   1   6
ATOM      6  C   UNL     1      49.714  53.925  19.114  1.00  0.00    +0.028 C 
BRANCH   6   7
ATOM      7  C   UNL     1      50.796  53.018  19.744  1.00  0.00    +0.122 C 
BRANCH   7   8
ATOM      8  C   UNL     1      52.269  53.321  19.362  1.00  0.00    +0.134 C 
ATOM      9  C   UNL     1      52.665  54.774  19.609  1.00  0.00    +0.040 C 
BRANCH   8  10
ATOM     10  O   UNL     1      52.545  53.014  17.995  1.00  0.00    -0.391 OA
ATOM     11  H   UNL     1      53.378  53.479  17.767  1.00  0.00    +0.211 HD
ENDBRANCH   8  10
ENDBRANCH   7   8
BRANCH   7  12
ATOM     12  N   UNL     1      50.475  51.617  19.441  1.00  0.00    -0.273 N 
ATOM     13  C   UNL     1      50.713  50.538  20.246  1.00  0.00    +0.296 A 
ATOM     14  C   UNL     1      49.868  51.134  18.310  1.00  0.00    +0.168 A 
ATOM     15  N   UNL     1      50.311  49.405  19.732  1.00  0.00    -0.190 NA
ATOM     16  N   UNL     1      49.466  51.828  17.230  1.00  0.00    -0.216 NA
ATOM     17  C   UNL     1      49.765  49.766  18.515  1.00  0.00    +0.154 A 
ATOM     18  C   UNL     1      48.910  51.006  16.313  1.00  0.00    +0.226 A 
ATOM     19  C   UNL     1      49.163  49.019  17.489  1.00  0.00    +0.155 A 
ATOM     20  N   UNL     1      48.747  49.667  16.377  1.00  0.00    -0.217 NA
BRANCH  13  21
ATOM     21  O   UNL     1      51.288  50.603  21.429  1.00  0.00    -0.480 OA
ATOM     22  H   UNL     1      51.392  49.661  21.657  1.00  0.00    +0.296 HD
ENDBRANCH  13  21
BRANCH  19  23
ATOM     23  N   UNL     1      48.990  47.644  17.548  1.00  0.00    -0.382 N 
ATOM     24  H   UNL     1      48.026  47.355  17.669  1.00  0.00    +0.158 HD
ATOM     25  H   UNL     1      49.693  47.193  18.120  1.00  0.00    +0.158 HD
ENDBRANCH  19  23
ENDBRANCH   7  12
ENDBRANCH   6   7
ENDBRANCH   1   6
TORSDOF 10
ENDMDL
MODEL 4
REMARK VINA RESULT:    -5.992      2.135      3.254
REMARK INTER + INTRA:          -9.814
REMARK INTER:                  -8.893
REMARK INTRA:                  -0.921
REMARK UNBOUND:                -0.844
REMARK SMILES CCCCCC[C@H]([C@H](C)O)n1c(O)nc2c(N)ncnc21
REMARK SMILES IDX 5 1 4 2 3 3 2 4 1 5 6 6 7 7 8 8 9 9 10 10 11 12 12 13 21 14
REMARK SMILES IDX 14 15 20 16 15 17 19 18 16 19 18 20 13 21 17 23
REMARK H PARENT 10 11 13 22 17 24 17 25
ROOT
ATOM      1  C   UNL     1      48.583  56.171  20.257  1.00  0.00    +0.002 C 
ENDROOT
BRANCH   1   2
ATOM      2  C   UNL     1      49.893  56.937  20.456  1.00  0.00    +0.000 C 
BRANCH   2   3
ATOM      3  C   UNL     1      50.418  56.883  21.895  1.00  0.00    -0.000 C 
BRANCH   3   4
ATOM      4  C   UNL     1      51.743  56.141  22.089  1.00  0.00    -0.003 C 
ATOM      5  C   UNL     1      51.572  54.667  22.424  1.00  0.00    +0.004 C 
ENDBRANCH   3   4
ENDBRANCH   2   3
ENDBRANCH   1   2
BRANCH   1   6
ATOM      6  C   UNL     1      48.848  54.710  19.893  1.00  0.00    +0.028 C 
BRANCH   6   7
ATOM      7  C   UNL     1      49.566  54.506  18.540  1.00  0.00    +0.122 C 
BRANCH   7   8
ATOM      8  C   UNL     1      48.676  54.114  17.330  1.00  0.00    +0.134 C 
ATOM      9  C   UNL     1      48.159  55.321  16.552  1.00  0.00    +0.040 C 
BRANCH   8  10
ATOM     10  O   UNL     1      47.553  53.325  17.721  1.00  0.00    -0.391 OA
ATOM     11  H   UNL     1      46.861  53.954  18.020  1.00  0.00    +0.211 HD
ENDBRANCH   8  10
ENDBRANCH   7   8
BRANCH   7  12
ATOM     12  N   UNL     1      50.640  53.519  18.717  1.00  0.00    -0.273 N 
ATOM     13  C   UNL     1      51.973  53.788  18.857  1.00  0.00    +0.296 A 
ATOM     14  C   UNL     1      50.506  52.156  18.786  1.00  0.00    +0.168 A 
ATOM     15  N   UNL     1      52.707  52.717  19.014  1.00  0.00    -0.190 NA
ATOM     16  N   UNL     1      49.378  51.432  18.679  1.00  0.00    -0.216 NA
ATOM     17  C   UNL     1      51.794  51.680  18.982  1.00  0.00    +0.154 A 
ATOM     18  C   UNL     1      49.643  50.113  18.799  1.00  0.00    +0.226 A 
ATOM     19  C   UNL     1      51.940  50.287  19.096  1.00  0.00    +0.155 A 
ATOM     20  N   UNL     1      50.837  49.512  18.989  1.00  0.00    -0.217 NA
BRANCH  13  21
ATOM     21  O   UNL     1      52.495  54.997  18.843  1.00  0.00    -0.480 OA
ATOM     22  H   UNL     1      53.418  54.823  19.106  1.00  0.00    +0.296 HD
ENDBRANCH  13  21
BRANCH  19  23
ATOM     23  N   UNL     1      53.163  49.663  19.293  1.00  0.00    -0.382 N 
ATOM     24  H   UNL     1      53.731  50.089  20.016  1.00  0.00    +0.158 HD
ATOM     25  H   UNL     1      53.613  49.418  18.421  1.00  0.00    +0.158 HD
ENDBRANCH  19  23
ENDBRANCH   7  12
ENDBRANCH   6   7
ENDBRANCH   1   6
TORSDOF 10
ENDMDL
MODEL 5
REMARK VINA RESULT:    -5.760      4.103      6.627
REMARK INTER + INTRA:          -9.466
REMARK INTER:                  -9.168
REMARK INTRA:                  -0.298
REMARK UNBOUND:                -0.844
REMARK SMILES CCCCCC[C@H]([C@H](C)O)n1c(O)nc2c(N)ncnc21
REMARK SMILES IDX 5 1 4 2 3 3 2 4 1 5 6 6 7 7 8 8 9 9 10 10 11 12 12 13 21 14
REMARK SMILES IDX 14 15 20 16 15 17 19 18 16 19 18 20 13 21 17 23
REMARK H PARENT 10 11 13 22 17 24 17 25
ROOT
ATOM      1  C   UNL     1      49.131  50.012  15.014  1.00  0.00    +0.002 C 
ENDROOT
BRANCH   1   2
ATOM      2  C   UNL     1      48.143  48.843  15.034  1.00  0.00    +0.000 C 
BRANCH   2   3
ATOM      3  C   UNL     1      46.829  49.169  15.751  1.00  0.00    -0.000 C 
BRANCH   3   4
ATOM      4  C   UNL     1      46.288  48.075  16.675  1.00  0.00    -0.003 C 
ATOM      5  C   UNL     1      45.829  48.594  18.029  1.00  0.00    +0.004 C 
ENDBRANCH   3   4
ENDBRANCH   2   3
ENDBRANCH   1   2
BRANCH   1   6
ATOM      6  C   UNL     1      49.108  50.778  16.338  1.00  0.00    +0.028 C 
BRANCH   6   7
ATOM      7  C   UNL     1      50.113  50.264  17.393  1.00  0.00    +0.122 C 
BRANCH   7   8
ATOM      8  C   UNL     1      49.526  49.452  18.579  1.00  0.00    +0.134 C 
ATOM      9  C   UNL     1      50.346  49.585  19.859  1.00  0.00    +0.040 C 
BRANCH   8  10
ATOM     10  O   UNL     1      49.406  48.063  18.273  1.00  0.00    -0.391 OA
ATOM     11  H   UNL     1      50.288  47.664  18.434  1.00  0.00    +0.211 HD
ENDBRANCH   8  10
ENDBRANCH   7   8
BRANCH   7  12
ATOM     12  N   UNL     1      50.894  51.402  17.898  1.00  0.00    -0.273 N 
ATOM     13  C   UNL     1      52.254  51.464  18.016  1.00  0.00    +0.296 A 
ATOM     14  C   UNL     1      50.408  52.609  18.331  1.00  0.00    +0.168 A 
ATOM     15  N   UNL     1      52.685  52.607  18.483  1.00  0.00    -0.190 NA
ATOM     16  N   UNL     1      49.123  53.000  18.413  1.00  0.00    -0.216 NA
ATOM     17  C   UNL     1      51.533  53.344  18.676  1.00  0.00    +0.154 A 
ATOM     18  C   UNL     1      49.037  54.261  18.888  1.00  0.00    +0.226 A 
ATOM     19  C   UNL     1      51.312  54.647  19.154  1.00  0.00    +0.155 A 
ATOM     20  N   UNL     1      50.038  55.087  19.263  1.00  0.00    -0.217 NA
BRANCH  13  21
ATOM     21  O   UNL     1      53.075  50.486  17.695  1.00  0.00    -0.480 OA
ATOM     22  H   UNL     1      53.824  50.642  18.300  1.00  0.00    +0.296 HD
ENDBRANCH  13  21
BRANCH  19  23
ATOM     23  N   UNL     1      52.335  55.501  19.539  1.00  0.00    -0.382 N 
ATOM     24  H   UNL     1      52.638  55.374  20.498  1.00  0.00    +0.158 HD
ATOM     25  H   UNL     1      52.188  56.447  19.212  1.00  0.00    +0.158 HD
ENDBRANCH  19  23
ENDBRANCH   7  12
ENDBRANCH   6   7
ENDBRANCH   1   6
TORSDOF 10
ENDMDL
