MODEL 1
REMARK VINA RESULT:    -7.031      0.000      0.000
REMARK INTER + INTRA:         -11.224
REMARK INTER:                 -10.320
REMARK INTRA:                  -0.905
REMARK UNBOUND:                -0.905
REMARK SMILES CCCCCC[C@H]([C@H](C)O)[N+]1([O-])C(=O)Nc2c(N)ncnc21
REMARK SMILES IDX 5 1 4 2 3 3 2 4 1 5 6 6 7 7 8 8 9 9 10 10 11 12 13 13 22 14
REMARK SMILES IDX 14 15 15 16 21 17 16 18 20 19 17 20 19 21 12 22 18 24
REMARK H PARENT 10 11 15 23 18 25 18 26
ROOT
ATOM      1  C   UNL     1      50.393  54.532  18.793  1.00  0.00    +0.006 C 
ENDROOT
BRANCH   1   2
ATOM      2  C   UNL     1      49.008  54.572  19.447  1.00  0.00    +0.000 C 
BRANCH   2   3
ATOM      3  C   UNL     1      48.579  55.978  19.875  1.00  0.00    -0.000 C 
BRANCH   3   4
ATOM      4  C   UNL     1      49.402  56.536  21.039  1.00  0.00    -0.003 C 
ATOM      5  C   UNL     1      48.939  57.906  21.511  1.00  0.00    +0.004 C 
ENDBRANCH   3   4
ENDBRANCH   2   3
ENDBRANCH   1   2
BRANCH   1   6
ATOM      6  C   UNL     1      51.368  53.561  19.481  1.00  0.00    +0.069 C 
BRANCH   6   7
ATOM      7  C   UNL     1      50.620  52.423  20.245  1.00  0.00    +0.230 C 
BRANCH   7   8
ATOM      8  C   UNL     1      50.988  52.456  21.757  1.00  0.00    +0.170 C 
ATOM      9  C   UNL     1      51.554  53.767  22.292  1.00  0.00    +0.045 C 
BRANCH   8  10
ATOM     10  O   UNL     1      51.995  51.466  22.030  1.00  0.00    -0.387 OA
ATOM     11  H   UNL     1      52.849  51.784  21.686  1.00  0.00    +0.211 HD
ENDBRANCH   8  10
ENDBRANCH   7   8
BRANCH   7  12
ATOM     12  N   UNL     1      50.810  51.084  19.530  1.00  0.00    -0.221 N 
ATOM     13  C   UNL     1      52.225  50.919  18.977  1.00  0.00    +0.428 C 
ATOM     14  C   UNL     1      50.039  50.958  18.243  1.00  0.00    +0.266 A 
ATOM     15  O   UNL     1      53.213  51.172  19.651  1.00  0.00    -0.206 OA
ATOM     16  N   UNL     1      52.204  50.534  17.653  1.00  0.00    -0.264 N 
ATOM     17  N   UNL     1      48.728  51.194  18.068  1.00  0.00    -0.182 NA
ATOM     18  C   UNL     1      50.887  50.586  17.218  1.00  0.00    +0.172 A 
ATOM     19  C   UNL     1      48.301  50.993  16.810  1.00  0.00    +0.230 A 
ATOM     20  C   UNL     1      50.360  50.410  15.968  1.00  0.00    +0.157 A 
ATOM     21  N   UNL     1      49.056  50.620  15.748  1.00  0.00    -0.217 NA
ATOM     22  O   UNL     1      50.522  49.990  20.316  1.00  0.00    -0.617 OA
ATOM     23  H   UNL     1      53.018  50.407  17.070  1.00  0.00    +0.176 HD
BRANCH  20  24
ATOM     24  N   UNL     1      51.153  50.062  14.876  1.00  0.00    -0.382 N 
ATOM     25  H   UNL     1      51.933  49.474  15.156  1.00  0.00    +0.158 HD
ATOM     26  H   UNL     1      50.558  49.582  14.204  1.00  0.00    +0.158 HD
ENDBRANCH  20  24
ENDBRANCH   7  12
ENDBRANCH   6   7
ENDBRANCH   1   6
TORSDOF 9
ENDMDL
MODEL 2
REMARK VINA RESULT:    -6.997      2.560      4.927
REMARK INTER + INTRA:         -11.173
REMARK INTER:                 -10.350
REMARK INTRA:                  -0.823
REMARK UNBOUND:                -0.905
REMARK SMILES CCCCCC[C@H]([C@H](C)O)[N+]1([O-])C(=O)Nc2c(N)ncnc21
REMARK SMILES IDX 5 1 4 2 3 3 2 4 1 5 6 6 7 7 8 8 9 9 10 10 11 12 13 13 22 14
REMARK SMILES IDX 14 15 15 16 21 17 16 18 20 19 17 20 19 21 12 22 18 24
REMARK H PARENT 10 11 15 23 18 25 18 26
ROOT
ATOM      1  C   UNL     1      48.943  54.300  18.048  1.00  0.00    +0.006 C 
ENDROOT
BRANCH   1   2
ATOM      2  C   UNL     1      48.968  55.692  18.689  1.00  0.00    +0.000 C 
BRANCH   2   3
ATOM      3  C   UNL     1      48.649  55.676  20.186  1.00  0.00    -0.000 C 
BRANCH   3   4
ATOM      4  C   UNL     1      48.746  57.056  20.842  1.00  0.00    -0.003 C 
ATOM      5  C   UNL     1      47.506  57.914  20.641  1.00  0.00    +0.004 C 
ENDBRANCH   3   4
ENDBRANCH   2   3
ENDBRANCH   1   2
BRANCH   1   6
ATOM      6  C   UNL     1      49.443  53.186  18.982  1.00  0.00    +0.069 C 
BRANCH   6   7
ATOM      7  C   UNL     1      50.864  52.678  18.582  1.00  0.00    +0.230 C 
BRANCH   7   8
ATOM      8  C   UNL     1      50.766  51.288  17.888  1.00  0.00    +0.170 C 
ATOM      9  C   UNL     1      49.421  50.575  17.980  1.00  0.00    +0.045 C 
BRANCH   8  10
ATOM     10  O   UNL     1      51.719  50.386  18.479  1.00  0.00    -0.387 OA
ATOM     11  H   UNL     1      52.607  50.607  18.146  1.00  0.00    +0.211 HD
ENDBRANCH   8  10
ENDBRANCH   7   8
BRANCH   7  12
ATOM     12  N   UNL     1      51.821  52.776  19.771  1.00  0.00    -0.221 N 
ATOM     13  C   UNL     1      51.232  52.162  21.041  1.00  0.00    +0.428 C 
ATOM     14  C   UNL     1      52.042  54.180  20.270  1.00  0.00    +0.266 A 
ATOM     15  O   UNL     1      50.692  51.066  21.035  1.00  0.00    -0.206 OA
ATOM     16  N   UNL     1      51.337  53.026  22.111  1.00  0.00    -0.264 N 
ATOM     17  N   UNL     1      52.390  55.247  19.533  1.00  0.00    -0.182 NA
ATOM     18  C   UNL     1      51.802  54.242  21.629  1.00  0.00    +0.172 A 
ATOM     19  C   UNL     1      52.527  56.379  20.243  1.00  0.00    +0.230 A 
ATOM     20  C   UNL     1      51.964  55.442  22.265  1.00  0.00    +0.157 A 
ATOM     21  N   UNL     1      52.323  56.531  21.573  1.00  0.00    -0.217 NA
ATOM     22  O   UNL     1      53.052  52.201  19.542  1.00  0.00    -0.617 OA
ATOM     23  H   UNL     1      50.979  52.851  23.038  1.00  0.00    +0.176 HD
BRANCH  20  24
ATOM     24  N   UNL     1      51.715  55.593  23.628  1.00  0.00    -0.382 N 
ATOM     25  H   UNL     1      51.687  56.573  23.894  1.00  0.00    +0.158 HD
ATOM     26  H   UNL     1      50.829  55.134  23.831  1.00  0.00    +0.158 HD
ENDBRANCH  20  24
ENDBRANCH   7  12
ENDBRANCH   6   7
ENDBRANCH   1   6
TORSDOF 9
ENDMDL
MODEL 3
REMARK VINA RESULT:    -6.648      2.570      5.546
REMARK INTER + INTRA:         -10.662
REMARK INTER:                  -9.966
REMARK INTRA:                  -0.696
REMARK UNBOUND:                -0.905
REMARK SMILES CCCCCC[C@H]([C@H](C)O)[N+]1([O-])C(=O)Nc2c(N)ncnc21
REMARK SMILES IDX 5 1 4 2 3 3 2 4 1 5 6 6 7 7 8 8 9 9 10 10 11 12 13 13 22 14
REMARK SMILES IDX 14 15 15 16 21 17 16 18 20 19 17 20 19 21 12 22 18 24
REMARK H PARENT 10 11 15 23 18 25 18 26
ROOT
ATOM      1  C   UNL     1      48.813  53.381  18.023  1.00  0.00    +0.006 C 
ENDROOT
BRANCH   1   2
ATOM      2  C   UNL     1      47.689  52.659  17.272  1.00  0.00    +0.000 C 
BRANCH   2   3
ATOM      3  C   UNL     1      48.193  51.766  16.136  1.00  0.00    -0.000 C 
BRANCH   3   4
ATOM      4  C   UNL     1      47.562  50.372  16.133  1.00  0.00    -0.003 C 
ATOM      5  C   UNL     1      46.586  50.142  17.276  1.00  0.00    +0.004 C 
ENDBRANCH   3   4
ENDBRANCH   2   3
ENDBRANCH   1   2
BRANCH   1   6
ATOM      6  C   UNL     1      49.472  52.520  19.114  1.00  0.00    +0.069 C 
BRANCH   6   7
ATOM      7  C   UNL     1      50.919  52.083  18.721  1.00  0.00    +0.230 C 
BRANCH   7   8
ATOM      8  C   UNL     1      50.944  50.571  18.354  1.00  0.00    +0.170 C 
ATOM      9  C   UNL     1      49.820  49.712  18.923  1.00  0.00    +0.045 C 
BRANCH   8  10
ATOM     10  O   UNL     1      52.161  49.976  18.839  1.00  0.00    -0.387 OA
ATOM     11  H   UNL     1      52.051  49.762  19.782  1.00  0.00    +0.211 HD
ENDBRANCH   8  10
ENDBRANCH   7   8
BRANCH   7  12
ATOM     12  N   UNL     1      51.922  52.540  19.782  1.00  0.00    -0.221 N 
ATOM     13  C   UNL     1      51.521  52.095  21.188  1.00  0.00    +0.428 C 
ATOM     14  C   UNL     1      51.948  54.028  20.005  1.00  0.00    +0.266 A 
ATOM     15  O   UNL     1      51.164  50.950  21.424  1.00  0.00    -0.206 OA
ATOM     16  N   UNL     1      51.555  53.150  22.076  1.00  0.00    -0.264 N 
ATOM     17  N   UNL     1      52.072  54.978  19.063  1.00  0.00    -0.182 NA
ATOM     18  C   UNL     1      51.788  54.308  21.348  1.00  0.00    +0.172 A 
ATOM     19  C   UNL     1      52.072  56.231  19.548  1.00  0.00    +0.230 A 
ATOM     20  C   UNL     1      51.797  55.617  21.746  1.00  0.00    +0.157 A 
ATOM     21  N   UNL     1      51.933  56.598  20.845  1.00  0.00    -0.217 NA
ATOM     22  O   UNL     1      53.211  52.116  19.544  1.00  0.00    -0.617 OA
ATOM     23  H   UNL     1      51.289  53.101  23.048  1.00  0.00    +0.176 HD
BRANCH  20  24
ATOM     24  N   UNL     1      51.615  55.983  23.079  1.00  0.00    -0.382 N 
ATOM     25  H   UNL     1      52.070  55.329  23.709  1.00  0.00    +0.158 HD
ATOM     26  H   UNL     1      51.990  56.922  23.194  1.00  0.00    +0.158 HD
ENDBRANCH  20  24
ENDBRANCH   7  12
ENDBRANCH   6   7
ENDBRANCH   1   6
TORSDOF 9
ENDMDL
MODEL 4
REMARK VINA RESULT:    -6.530      2.764      4.750
REMARK INTER + INTRA:         -10.488
REMARK INTER:                  -9.674
REMARK INTRA:                  -0.814
REMARK UNBOUND:                -0.905
REMARK SMILES CCCCCC[C@H]([C@H](C)O)[N+]1([O-])C(=O)Nc2c(N)ncnc21
REMARK SMILES IDX 5 1 4 2 3 3 2 4 1 5 6 6 7 7 8 8 9 9 10 10 11 12 13 13 22 14
REMARK SMILES IDX 14 15 15 16 21 17 16 18 20 19 17 20 19 21 12 22 18 24
REMARK H PARENT 10 11 15 23 18 25 18 26
ROOT
ATOM      1  C   UNL     1      48.318  54.915  19.463  1.00  0.00    +0.006 C 
ENDROOT
BRANCH   1   2
ATOM      2  C   UNL     1      48.261  54.142  18.141  1.00  0.00    +0.000 C 
BRANCH   2   3
ATOM      3  C   UNL     1      49.306  53.028  18.045  1.00  0.00    -0.000 C 
BRANCH   3   4
ATOM      4  C   UNL     1      48.961  51.960  17.003  1.00  0.00    -0.003 C 
ATOM      5  C   UNL     1      47.476  51.641  16.926  1.00  0.00    +0.004 C 
ENDBRANCH   3   4
ENDBRANCH   2   3
ENDBRANCH   1   2
BRANCH   1   6
ATOM      6  C   UNL     1      49.579  55.782  19.613  1.00  0.00    +0.069 C 
BRANCH   6   7
ATOM      7  C   UNL     1      50.184  55.693  21.050  1.00  0.00    +0.230 C 
BRANCH   7   8
ATOM      8  C   UNL     1      50.146  57.087  21.740  1.00  0.00    +0.170 C 
ATOM      9  C   UNL     1      48.892  57.925  21.513  1.00  0.00    +0.045 C 
BRANCH   8  10
ATOM     10  O   UNL     1      51.236  57.894  21.259  1.00  0.00    -0.387 OA
ATOM     11  H   UNL     1      51.069  58.822  21.500  1.00  0.00    +0.211 HD
ENDBRANCH   8  10
ENDBRANCH   7   8
BRANCH   7  12
ATOM     12  N   UNL     1      51.543  54.990  21.015  1.00  0.00    -0.221 N 
ATOM     13  C   UNL     1      52.251  55.168  19.673  1.00  0.00    +0.428 C 
ATOM     14  C   UNL     1      51.461  53.488  21.041  1.00  0.00    +0.266 A 
ATOM     15  O   UNL     1      52.336  56.259  19.129  1.00  0.00    -0.206 OA
ATOM     16  N   UNL     1      52.687  53.959  19.172  1.00  0.00    -0.264 N 
ATOM     17  N   UNL     1      50.772  52.737  21.916  1.00  0.00    -0.182 NA
ATOM     18  C   UNL     1      52.184  52.957  19.990  1.00  0.00    +0.172 A 
ATOM     19  C   UNL     1      50.883  51.415  21.707  1.00  0.00    +0.230 A 
ATOM     20  C   UNL     1      52.235  51.596  19.857  1.00  0.00    +0.157 A 
ATOM     21  N   UNL     1      51.576  50.807  20.714  1.00  0.00    -0.217 NA
ATOM     22  O   UNL     1      52.401  55.393  22.015  1.00  0.00    -0.617 OA
ATOM     23  H   UNL     1      53.142  53.827  18.281  1.00  0.00    +0.176 HD
BRANCH  20  24
ATOM     24  N   UNL     1      52.921  50.984  18.808  1.00  0.00    -0.382 N 
ATOM     25  H   UNL     1      52.284  50.514  18.172  1.00  0.00    +0.158 HD
ATOM     26  H   UNL     1      53.452  51.707  18.325  1.00  0.00    +0.158 HD
ENDBRANCH  20  24
ENDBRANCH   7  12
ENDBRANCH   6   7
ENDBRANCH   1   6
TORSDOF 9
ENDMDL
MODEL 5
REMARK VINA RESULT:    -6.502      2.660      5.927
REMARK INTER + INTRA:         -10.448
REMARK INTER:                 -10.170
REMARK INTRA:                  -0.278
REMARK UNBOUND:                -0.905
REMARK SMILES CCCCCC[C@H]([C@H](C)O)[N+]1([O-])C(=O)Nc2c(N)ncnc21
REMARK SMILES IDX 5 1 4 2 3 3 2 4 1 5 6 6 7 7 8 8 9 9 10 10 11 12 13 13 22 14
REMARK SMILES IDX 14 15 15 16 21 17 16 18 20 19 17 20 19 21 12 22 18 24
REMARK H PARENT 10 11 15 23 18 25 18 26
ROOT
ATOM      1  C   UNL     1      48.964  49.293  18.920  1.00  0.00    +0.006 C 
ENDROOT
BRANCH   1   2
ATOM      2  C   UNL     1      48.639  48.412  17.709  1.00  0.00    +0.000 C 
BRANCH   2   3
ATOM      3  C   UNL     1      47.655  49.063  16.732  1.00  0.00    -0.000 C 
BRANCH   3   4
ATOM      4  C   UNL     1      46.452  49.709  17.423  1.00  0.00    -0.003 C 
ATOM      5  C   UNL     1      45.317  48.737  17.707  1.00  0.00    +0.004 C 
ENDBRANCH   3   4
ENDBRANCH   2   3
ENDBRANCH   1   2
BRANCH   1   6
ATOM      6  C   UNL     1      50.331  49.990  18.821  1.00  0.00    +0.069 C 
BRANCH   6   7
ATOM      7  C   UNL     1      50.229  51.523  19.100  1.00  0.00    +0.230 C 
BRANCH   7   8
ATOM      8  C   UNL     1      49.946  52.294  17.778  1.00  0.00    +0.170 C 
ATOM      9  C   UNL     1      48.515  52.771  17.560  1.00  0.00    +0.045 C 
BRANCH   8  10
ATOM     10  O   UNL     1      50.242  51.447  16.652  1.00  0.00    -0.387 OA
ATOM     11  H   UNL     1      51.022  51.803  16.190  1.00  0.00    +0.211 HD
ENDBRANCH   8  10
ENDBRANCH   7   8
BRANCH   7  12
ATOM     12  N   UNL     1      51.431  51.999  19.918  1.00  0.00    -0.221 N 
ATOM     13  C   UNL     1      51.266  51.711  21.410  1.00  0.00    +0.428 C 
ATOM     14  C   UNL     1      51.580  53.495  19.982  1.00  0.00    +0.266 A 
ATOM     15  O   UNL     1      50.894  50.620  21.818  1.00  0.00    -0.206 OA
ATOM     16  N   UNL     1      51.519  52.835  22.168  1.00  0.00    -0.264 N 
ATOM     17  N   UNL     1      51.586  54.346  18.943  1.00  0.00    -0.182 NA
ATOM     18  C   UNL     1      51.681  53.904  21.298  1.00  0.00    +0.172 A 
ATOM     19  C   UNL     1      51.743  55.633  19.292  1.00  0.00    +0.230 A 
ATOM     20  C   UNL     1      51.835  55.239  21.555  1.00  0.00    +0.157 A 
ATOM     21  N   UNL     1      51.860  56.123  20.550  1.00  0.00    -0.217 NA
ATOM     22  O   UNL     1      52.631  51.463  19.504  1.00  0.00    -0.617 OA
ATOM     23  H   UNL     1      51.430  52.893  23.172  1.00  0.00    +0.176 HD
BRANCH  20  24
ATOM     24  N   UNL     1      51.917  55.734  22.856  1.00  0.00    -0.382 N 
ATOM     25  H   UNL     1      51.295  55.233  23.484  1.00  0.00    +0.158 HD
ATOM     26  H   UNL     1      52.886  55.648  23.157  1.00  0.00    +0.158 HD
ENDBRANCH  20  24
ENDBRANCH   7  12
ENDBRANCH   6   7
ENDBRANCH   1   6
TORSDOF 9
ENDMDL
