MODEL 1
REMARK VINA RESULT:    -6.976      0.000      0.000
REMARK INTER + INTRA:         -11.258
REMARK INTER:                 -10.238
REMARK INTRA:                  -1.019
REMARK UNBOUND:                -1.019
REMARK SMILES CCCCCC[C@H]([C@H](C)O)[N+]1([O-])C=Nc2c(N)ncnc21
REMARK SMILES IDX 5 1 4 2 3 3 2 4 1 5 6 6 7 7 8 8 9 9 10 10 11 12 13 13 21 14
REMARK SMILES IDX 14 15 20 16 15 17 19 18 16 19 18 20 12 21 17 22
REMARK H PARENT 10 11 17 23 17 24
ROOT
ATOM      1  C   UNL     1      49.102  55.178  18.854  1.00  0.00    +0.006 C 
ENDROOT
BRANCH   1   2
ATOM      2  C   UNL     1      48.497  55.544  20.210  1.00  0.00    +0.000 C 
BRANCH   2   3
ATOM      3  C   UNL     1      47.745  56.880  20.228  1.00  0.00    -0.000 C 
BRANCH   3   4
ATOM      4  C   UNL     1      48.415  57.994  21.034  1.00  0.00    -0.003 C 
ATOM      5  C   UNL     1      49.673  57.541  21.761  1.00  0.00    +0.004 C 
ENDBRANCH   3   4
ENDBRANCH   2   3
ENDBRANCH   1   2
BRANCH   1   6
ATOM      6  C   UNL     1      50.597  54.840  18.937  1.00  0.00    +0.069 C 
BRANCH   6   7
ATOM      7  C   UNL     1      51.020  53.735  19.943  1.00  0.00    +0.226 C 
BRANCH   7   8
ATOM      8  C   UNL     1      51.999  54.219  21.053  1.00  0.00    +0.170 C 
ATOM      9  C   UNL     1      51.393  54.304  22.447  1.00  0.00    +0.045 C 
BRANCH   8  10
ATOM     10  O   UNL     1      52.584  55.474  20.717  1.00  0.00    -0.387 OA
ATOM     11  H   UNL     1      51.928  55.935  20.143  1.00  0.00    +0.211 HD
ENDBRANCH   8  10
ENDBRANCH   7   8
BRANCH   7  12
ATOM     12  N   UNL     1      51.692  52.549  19.224  1.00  0.00    -0.262 N 
ATOM     13  C   UNL     1      52.772  51.954  20.119  1.00  0.00    +0.350 C 
ATOM     14  C   UNL     1      50.837  51.331  19.104  1.00  0.00    +0.265 A 
ATOM     15  N   UNL     1      52.564  50.737  20.540  1.00  0.00    -0.191 NA
ATOM     16  N   UNL     1      49.740  51.175  18.342  1.00  0.00    -0.182 NA
ATOM     17  C   UNL     1      51.383  50.344  19.892  1.00  0.00    +0.193 A 
ATOM     18  C   UNL     1      49.195  49.950  18.418  1.00  0.00    +0.230 A 
ATOM     19  C   UNL     1      50.739  49.125  19.908  1.00  0.00    +0.159 A 
ATOM     20  N   UNL     1      49.633  48.922  19.174  1.00  0.00    -0.217 NA
ATOM     21  O   UNL     1      52.245  52.893  18.020  1.00  0.00    -0.620 OA
BRANCH  19  22
ATOM     22  N   UNL     1      51.250  48.056  20.663  1.00  0.00    -0.382 N 
ATOM     23  H   UNL     1      52.005  48.417  21.244  1.00  0.00    +0.158 HD
ATOM     24  H   UNL     1      50.532  47.748  21.315  1.00  0.00    +0.158 HD
ENDBRANCH  19  22
ENDBRANCH   7  12
ENDBRANCH   6   7
ENDBRANCH   1   6
TORSDOF 9
ENDMDL
MODEL 2
REMARK VINA RESULT:    -6.854      2.816      6.120
REMARK INTER + INTRA:         -11.079
REMARK INTER:                 -10.497
REMARK INTRA:                  -0.582
REMARK UNBOUND:                -1.019
REMARK SMILES CCCCCC[C@H]([C@H](C)O)[N+]1([O-])C=Nc2c(N)ncnc21
REMARK SMILES IDX 5 1 4 2 3 3 2 4 1 5 6 6 7 7 8 8 9 9 10 10 11 12 13 13 21 14
REMARK SMILES IDX 14 15 20 16 15 17 19 18 16 19 18 20 12 21 17 22
REMARK H PARENT 10 11 17 23 17 24
ROOT
ATOM      1  C   UNL     1      49.463  49.037  19.821  1.00  0.00    +0.006 C 
ENDROOT
BRANCH   1   2
ATOM      2  C   UNL     1      48.690  48.596  18.578  1.00  0.00    +0.000 C 
BRANCH   2   3
ATOM      3  C   UNL     1      47.167  48.579  18.754  1.00  0.00    -0.000 C 
BRANCH   3   4
ATOM      4  C   UNL     1      46.364  48.980  17.514  1.00  0.00    -0.003 C 
ATOM      5  C   UNL     1      44.875  48.695  17.639  1.00  0.00    +0.004 C 
ENDBRANCH   3   4
ENDBRANCH   2   3
ENDBRANCH   1   2
BRANCH   1   6
ATOM      6  C   UNL     1      50.803  49.708  19.486  1.00  0.00    +0.069 C 
BRANCH   6   7
ATOM      7  C   UNL     1      50.779  51.234  19.197  1.00  0.00    +0.226 C 
BRANCH   7   8
ATOM      8  C   UNL     1      50.543  51.600  17.702  1.00  0.00    +0.170 C 
ATOM      9  C   UNL     1      49.116  52.009  17.362  1.00  0.00    +0.045 C 
BRANCH   8  10
ATOM     10  O   UNL     1      50.946  50.539  16.839  1.00  0.00    -0.387 OA
ATOM     11  H   UNL     1      51.196  49.789  17.428  1.00  0.00    +0.211 HD
ENDBRANCH   8  10
ENDBRANCH   7   8
BRANCH   7  12
ATOM     12  N   UNL     1      52.095  51.908  19.631  1.00  0.00    -0.262 N 
ATOM     13  C   UNL     1      52.644  52.745  18.482  1.00  0.00    +0.350 C 
ATOM     14  C   UNL     1      51.930  53.013  20.623  1.00  0.00    +0.265 A 
ATOM     15  N   UNL     1      52.680  54.035  18.676  1.00  0.00    -0.191 NA
ATOM     16  N   UNL     1      51.556  52.905  21.910  1.00  0.00    -0.182 NA
ATOM     17  C   UNL     1      52.264  54.197  20.006  1.00  0.00    +0.193 A 
ATOM     18  C   UNL     1      51.524  54.077  22.566  1.00  0.00    +0.230 A 
ATOM     19  C   UNL     1      52.186  55.344  20.767  1.00  0.00    +0.159 A 
ATOM     20  N   UNL     1      51.807  55.292  22.053  1.00  0.00    -0.217 NA
ATOM     21  O   UNL     1      53.051  51.015  20.033  1.00  0.00    -0.620 OA
BRANCH  19  22
ATOM     22  N   UNL     1      52.540  56.590  20.220  1.00  0.00    -0.382 N 
ATOM     23  H   UNL     1      51.747  57.219  20.338  1.00  0.00    +0.158 HD
ATOM     24  H   UNL     1      53.288  56.989  20.783  1.00  0.00    +0.158 HD
ENDBRANCH  19  22
ENDBRANCH   7  12
ENDBRANCH   6   7
ENDBRANCH   1   6
TORSDOF 9
ENDMDL
MODEL 3
REMARK VINA RESULT:    -6.749      2.014      3.889
REMARK INTER + INTRA:         -10.925
REMARK INTER:                 -10.279
REMARK INTRA:                  -0.646
REMARK UNBOUND:                -1.019
REMARK SMILES CCCCCC[C@H]([C@H](C)O)[N+]1([O-])C=Nc2c(N)ncnc21
REMARK SMILES IDX 5 1 4 2 3 3 2 4 1 5 6 6 7 7 8 8 9 9 10 10 11 12 13 13 21 14
REMARK SMILES IDX 14 15 20 16 15 17 19 18 16 19 18 20 12 21 17 22
REMARK H PARENT 10 11 17 23 17 24
ROOT
ATOM      1  C   UNL     1      48.967  55.559  18.447  1.00  0.00    +0.006 C 
ENDROOT
BRANCH   1   2
ATOM      2  C   UNL     1      48.683  54.081  18.717  1.00  0.00    +0.000 C 
BRANCH   2   3
ATOM      3  C   UNL     1      48.865  53.169  17.498  1.00  0.00    -0.000 C 
BRANCH   3   4
ATOM      4  C   UNL     1      47.566  52.698  16.840  1.00  0.00    -0.003 C 
ATOM      5  C   UNL     1      47.270  51.224  17.072  1.00  0.00    +0.004 C 
ENDBRANCH   3   4
ENDBRANCH   2   3
ENDBRANCH   1   2
BRANCH   1   6
ATOM      6  C   UNL     1      50.268  56.048  19.100  1.00  0.00    +0.069 C 
BRANCH   6   7
ATOM      7  C   UNL     1      50.409  55.851  20.634  1.00  0.00    +0.226 C 
BRANCH   7   8
ATOM      8  C   UNL     1      50.356  57.170  21.459  1.00  0.00    +0.170 C 
ATOM      9  C   UNL     1      48.963  57.760  21.632  1.00  0.00    +0.045 C 
BRANCH   8  10
ATOM     10  O   UNL     1      51.220  58.161  20.908  1.00  0.00    -0.387 OA
ATOM     11  H   UNL     1      50.787  59.029  21.084  1.00  0.00    +0.211 HD
ENDBRANCH   8  10
ENDBRANCH   7   8
BRANCH   7  12
ATOM     12  N   UNL     1      51.731  55.142  20.989  1.00  0.00    -0.262 N 
ATOM     13  C   UNL     1      51.604  54.478  22.354  1.00  0.00    +0.350 C 
ATOM     14  C   UNL     1      52.009  53.910  20.192  1.00  0.00    +0.265 A 
ATOM     15  N   UNL     1      51.660  53.174  22.367  1.00  0.00    -0.191 NA
ATOM     16  N   UNL     1      52.315  53.835  18.885  1.00  0.00    -0.182 NA
ATOM     17  C   UNL     1      51.935  52.826  21.037  1.00  0.00    +0.193 A 
ATOM     18  C   UNL     1      52.542  52.584  18.451  1.00  0.00    +0.230 A 
ATOM     19  C   UNL     1      52.174  51.585  20.487  1.00  0.00    +0.159 A 
ATOM     20  N   UNL     1      52.473  51.455  19.185  1.00  0.00    -0.217 NA
ATOM     21  O   UNL     1      52.809  55.985  20.997  1.00  0.00    -0.620 OA
BRANCH  19  22
ATOM     22  N   UNL     1      52.149  50.431  21.289  1.00  0.00    -0.382 N 
ATOM     23  H   UNL     1      51.730  50.682  22.184  1.00  0.00    +0.158 HD
ATOM     24  H   UNL     1      51.508  49.760  20.870  1.00  0.00    +0.158 HD
ENDBRANCH  19  22
ENDBRANCH   7  12
ENDBRANCH   6   7
ENDBRANCH   1   6
TORSDOF 9
ENDMDL
MODEL 4
REMARK VINA RESULT:    -6.597      1.977      3.610
REMARK INTER + INTRA:         -10.702
REMARK INTER:                 -10.132
REMARK INTRA:                  -0.569
REMARK UNBOUND:                -1.019
REMARK SMILES CCCCCC[C@H]([C@H](C)O)[N+]1([O-])C=Nc2c(N)ncnc21
REMARK SMILES IDX 5 1 4 2 3 3 2 4 1 5 6 6 7 7 8 8 9 9 10 10 11 12 13 13 21 14
REMARK SMILES IDX 14 15 20 16 15 17 19 18 16 19 18 20 12 21 17 22
REMARK H PARENT 10 11 17 23 17 24
ROOT
ATOM      1  C   UNL     1      50.926  54.316  21.620  1.00  0.00    +0.006 C 
ENDROOT
BRANCH   1   2
ATOM      2  C   UNL     1      51.679  55.586  22.018  1.00  0.00    +0.000 C 
BRANCH   2   3
ATOM      3  C   UNL     1      50.785  56.819  22.203  1.00  0.00    -0.000 C 
BRANCH   3   4
ATOM      4  C   UNL     1      49.736  57.031  21.110  1.00  0.00    -0.003 C 
ATOM      5  C   UNL     1      48.692  58.078  21.469  1.00  0.00    +0.004 C 
ENDBRANCH   3   4
ENDBRANCH   2   3
ENDBRANCH   1   2
BRANCH   1   6
ATOM      6  C   UNL     1      51.849  53.221  21.068  1.00  0.00    +0.069 C 
BRANCH   6   7
ATOM      7  C   UNL     1      51.183  52.074  20.259  1.00  0.00    +0.226 C 
BRANCH   7   8
ATOM      8  C   UNL     1      51.728  50.654  20.593  1.00  0.00    +0.170 C 
ATOM      9  C   UNL     1      50.666  49.642  21.002  1.00  0.00    +0.045 C 
BRANCH   8  10
ATOM     10  O   UNL     1      52.738  50.708  21.597  1.00  0.00    -0.387 OA
ATOM     11  H   UNL     1      53.348  51.436  21.330  1.00  0.00    +0.211 HD
ENDBRANCH   8  10
ENDBRANCH   7   8
BRANCH   7  12
ATOM     12  N   UNL     1      51.353  52.285  18.742  1.00  0.00    -0.262 N 
ATOM     13  C   UNL     1      51.528  50.937  18.054  1.00  0.00    +0.350 C 
ATOM     14  C   UNL     1      50.110  52.712  18.032  1.00  0.00    +0.265 A 
ATOM     15  N   UNL     1      50.575  50.579  17.238  1.00  0.00    -0.191 NA
ATOM     16  N   UNL     1      49.480  53.896  18.129  1.00  0.00    -0.182 NA
ATOM     17  C   UNL     1      49.714  51.686  17.205  1.00  0.00    +0.193 A 
ATOM     18  C   UNL     1      48.396  54.001  17.343  1.00  0.00    +0.230 A 
ATOM     19  C   UNL     1      48.581  51.893  16.447  1.00  0.00    +0.159 A 
ATOM     20  N   UNL     1      47.909  53.053  16.517  1.00  0.00    -0.217 NA
ATOM     21  O   UNL     1      52.412  53.092  18.426  1.00  0.00    -0.620 OA
BRANCH  19  22
ATOM     22  N   UNL     1      48.128  50.906  15.554  1.00  0.00    -0.382 N 
ATOM     23  H   UNL     1      47.160  50.691  15.791  1.00  0.00    +0.158 HD
ATOM     24  H   UNL     1      48.094  51.307  14.620  1.00  0.00    +0.158 HD
ENDBRANCH  19  22
ENDBRANCH   7  12
ENDBRANCH   6   7
ENDBRANCH   1   6
TORSDOF 9
ENDMDL
MODEL 5
REMARK VINA RESULT:    -6.394      2.560      4.270
REMARK INTER + INTRA:         -10.403
REMARK INTER:                 -10.279
REMARK INTRA:                  -0.123
REMARK UNBOUND:                -1.019
REMARK SMILES CCCCCC[C@H]([C@H](C)O)[N+]1([O-])C=Nc2c(N)ncnc21
REMARK SMILES IDX 5 1 4 2 3 3 2 4 1 5 6 6 7 7 8 8 9 9 10 10 11 12 13 13 21 14
REMARK SMILES IDX 14 15 20 16 15 17 19 18 16 19 18 20 12 21 17 22
REMARK H PARENT 10 11 17 23 17 24
ROOT
ATOM      1  C   UNL     1      47.661  57.931  20.656  1.00  0.00    +0.006 C 
ENDROOT
BRANCH   1   2
ATOM      2  C   UNL     1      47.880  59.018  19.602  1.00  0.00    +0.000 C 
BRANCH   2   3
ATOM      3  C   UNL     1      46.728  60.022  19.481  1.00  0.00    -0.000 C 
BRANCH   3   4
ATOM      4  C   UNL     1      47.149  61.458  19.158  1.00  0.00    -0.003 C 
ATOM      5  C   UNL     1      46.131  62.499  19.598  1.00  0.00    +0.004 C 
ENDBRANCH   3   4
ENDBRANCH   2   3
ENDBRANCH   1   2
BRANCH   1   6
ATOM      6  C   UNL     1      48.961  57.226  21.068  1.00  0.00    +0.069 C 
BRANCH   6   7
ATOM      7  C   UNL     1      49.880  56.709  19.928  1.00  0.00    +0.226 C 
BRANCH   7   8
ATOM      8  C   UNL     1      49.282  55.528  19.107  1.00  0.00    +0.170 C 
ATOM      9  C   UNL     1      48.690  55.920  17.761  1.00  0.00    +0.045 C 
BRANCH   8  10
ATOM     10  O   UNL     1      48.305  54.816  19.861  1.00  0.00    -0.387 OA
ATOM     11  H   UNL     1      47.855  54.214  19.223  1.00  0.00    +0.211 HD
ENDBRANCH   8  10
ENDBRANCH   7   8
BRANCH   7  12
ATOM     12  N   UNL     1      51.244  56.244  20.473  1.00  0.00    -0.262 N 
ATOM     13  C   UNL     1      51.134  55.983  21.970  1.00  0.00    +0.350 C 
ATOM     14  C   UNL     1      51.642  54.866  20.058  1.00  0.00    +0.265 A 
ATOM     15  N   UNL     1      51.294  54.746  22.351  1.00  0.00    -0.191 NA
ATOM     16  N   UNL     1      51.989  54.452  18.826  1.00  0.00    -0.182 NA
ATOM     17  C   UNL     1      51.633  54.061  21.174  1.00  0.00    +0.193 A 
ATOM     18  C   UNL     1      52.328  53.154  18.764  1.00  0.00    +0.230 A 
ATOM     19  C   UNL     1      51.987  52.741  20.999  1.00  0.00    +0.159 A 
ATOM     20  N   UNL     1      52.330  52.276  19.788  1.00  0.00    -0.217 NA
ATOM     21  O   UNL     1      52.250  57.144  20.246  1.00  0.00    -0.620 OA
BRANCH  19  22
ATOM     22  N   UNL     1      52.032  51.861  22.095  1.00  0.00    -0.382 N 
ATOM     23  H   UNL     1      52.944  51.962  22.538  1.00  0.00    +0.158 HD
ATOM     24  H   UNL     1      51.358  52.176  22.790  1.00  0.00    +0.158 HD
ENDBRANCH  19  22
ENDBRANCH   7  12
ENDBRANCH   6   7
ENDBRANCH   1   6
TORSDOF 9
ENDMDL
