MODEL 1
REMARK VINA RESULT:    -6.593      0.000      0.000
REMARK INTER + INTRA:         -10.944
REMARK INTER:                 -10.062
REMARK INTRA:                  -0.881
REMARK UNBOUND:                -0.881
REMARK SMILES CCCCCCC(C(C)O)n1cnc(C(=N)S)c1
REMARK SMILES IDX 6 1 5 2 4 3 3 4 2 5 1 6 7 7 8 8 9 9 10 10 11 12 12 13 18 14
REMARK SMILES IDX 13 15 14 16 15 17 16 18 17 20
REMARK H PARENT 10 11 16 19 17 21
ROOT
ATOM      1  C   UNL     1      50.531  56.983  22.108  1.00  0.00    +0.028 C 
ENDROOT
BRANCH   1   2
ATOM      2  C   UNL     1      49.467  57.950  21.577  1.00  0.00    +0.002 C 
BRANCH   2   3
ATOM      3  C   UNL     1      48.280  57.239  20.915  1.00  0.00    +0.000 C 
BRANCH   3   4
ATOM      4  C   UNL     1      48.303  57.314  19.385  1.00  0.00    -0.000 C 
BRANCH   4   5
ATOM      5  C   UNL     1      48.801  56.026  18.724  1.00  0.00    -0.003 C 
ATOM      6  C   UNL     1      48.534  54.775  19.548  1.00  0.00    +0.004 C 
ENDBRANCH   4   5
ENDBRANCH   3   4
ENDBRANCH   2   3
ENDBRANCH   1   2
BRANCH   1   7
ATOM      7  C   UNL     1      51.756  56.765  21.184  1.00  0.00    +0.116 C 
BRANCH   7   8
ATOM      8  C   UNL     1      53.069  57.405  21.701  1.00  0.00    +0.134 C 
ATOM      9  C   UNL     1      54.068  57.679  20.578  1.00  0.00    +0.040 C 
BRANCH   8  10
ATOM     10  O   UNL     1      52.772  58.651  22.337  1.00  0.00    -0.391 OA
ATOM     11  H   UNL     1      53.489  58.843  22.967  1.00  0.00    +0.211 HD
ENDBRANCH   8  10
ENDBRANCH   7   8
BRANCH   7  12
ATOM     12  N   UNL     1      51.903  55.363  20.808  1.00  0.00    -0.331 N 
ATOM     13  C   UNL     1      51.691  54.301  21.645  1.00  0.00    +0.200 A 
ATOM     14  C   UNL     1      52.254  54.856  19.586  1.00  0.00    +0.118 A 
ATOM     15  N   UNL     1      51.882  53.157  21.030  1.00  0.00    -0.235 NA
ATOM     16  C   UNL     1      52.241  53.482  19.730  1.00  0.00    +0.112 A 
BRANCH  16  17
ATOM     17  C   UNL     1      52.536  52.445  18.756  1.00  0.00    +0.111 C 
ATOM     18  N   UNL     1      53.146  52.732  17.654  1.00  0.00    -0.292 NA
ATOM     19  H   UNL     1      53.326  53.751  17.681  1.00  0.00    +0.188 HD
BRANCH  17  20
ATOM     20  S   UNL     1      52.066  50.808  19.073  1.00  0.00    -0.122 SA
ATOM     21  H   UNL     1      51.602  50.600  17.833  1.00  0.00    +0.110 HD
ENDBRANCH  17  20
ENDBRANCH  16  17
ENDBRANCH   7  12
ENDBRANCH   1   7
TORSDOF 10
ENDMDL
MODEL 2
REMARK VINA RESULT:    -6.572      1.207      1.789
REMARK INTER + INTRA:         -10.911
REMARK INTER:                 -10.354
REMARK INTRA:                  -0.557
REMARK UNBOUND:                -0.881
REMARK SMILES CCCCCCC(C(C)O)n1cnc(C(=N)S)c1
REMARK SMILES IDX 6 1 5 2 4 3 3 4 2 5 1 6 7 7 8 8 9 9 10 10 11 12 12 13 18 14
REMARK SMILES IDX 13 15 14 16 15 17 16 18 17 20
REMARK H PARENT 10 11 16 19 17 21
ROOT
ATOM      1  C   UNL     1      50.642  56.800  22.142  1.00  0.00    +0.028 C 
ENDROOT
BRANCH   1   2
ATOM      2  C   UNL     1      49.495  57.761  21.807  1.00  0.00    +0.002 C 
BRANCH   2   3
ATOM      3  C   UNL     1      48.554  57.224  20.721  1.00  0.00    +0.000 C 
BRANCH   3   4
ATOM      4  C   UNL     1      47.362  58.143  20.442  1.00  0.00    -0.000 C 
BRANCH   4   5
ATOM      5  C   UNL     1      47.588  59.082  19.253  1.00  0.00    -0.003 C 
ATOM      6  C   UNL     1      46.741  60.344  19.303  1.00  0.00    +0.004 C 
ENDBRANCH   4   5
ENDBRANCH   3   4
ENDBRANCH   2   3
ENDBRANCH   1   2
BRANCH   1   7
ATOM      7  C   UNL     1      51.718  56.634  21.039  1.00  0.00    +0.116 C 
BRANCH   7   8
ATOM      8  C   UNL     1      53.086  57.276  21.377  1.00  0.00    +0.134 C 
ATOM      9  C   UNL     1      53.069  58.797  21.234  1.00  0.00    +0.040 C 
BRANCH   8  10
ATOM     10  O   UNL     1      53.434  56.966  22.729  1.00  0.00    -0.391 OA
ATOM     11  H   UNL     1      53.027  56.110  22.953  1.00  0.00    +0.211 HD
ENDBRANCH   8  10
ENDBRANCH   7   8
BRANCH   7  12
ATOM     12  N   UNL     1      51.822  55.247  20.594  1.00  0.00    -0.331 N 
ATOM     13  C   UNL     1      51.782  54.155  21.418  1.00  0.00    +0.200 A 
ATOM     14  C   UNL     1      51.959  54.787  19.313  1.00  0.00    +0.118 A 
ATOM     15  N   UNL     1      51.882  53.036  20.741  1.00  0.00    -0.235 NA
ATOM     16  C   UNL     1      51.998  53.409  19.409  1.00  0.00    +0.112 A 
BRANCH  16  17
ATOM     17  C   UNL     1      52.134  52.409  18.364  1.00  0.00    +0.111 C 
ATOM     18  N   UNL     1      53.126  52.454  17.537  1.00  0.00    -0.292 NA
ATOM     19  H   UNL     1      53.690  53.279  17.806  1.00  0.00    +0.188 HD
BRANCH  17  20
ATOM     20  S   UNL     1      50.959  51.145  18.223  1.00  0.00    -0.122 SA
ATOM     21  H   UNL     1      49.927  51.938  18.541  1.00  0.00    +0.110 HD
ENDBRANCH  17  20
ENDBRANCH  16  17
ENDBRANCH   7  12
ENDBRANCH   1   7
TORSDOF 10
ENDMDL
MODEL 3
REMARK VINA RESULT:    -6.181      2.988      4.650
REMARK INTER + INTRA:         -10.314
REMARK INTER:                  -9.571
REMARK INTRA:                  -0.742
REMARK UNBOUND:                -0.881
REMARK SMILES CCCCCCC(C(C)O)n1cnc(C(=N)S)c1
REMARK SMILES IDX 6 1 5 2 4 3 3 4 2 5 1 6 7 7 8 8 9 9 10 10 11 12 12 13 18 14
REMARK SMILES IDX 13 15 14 16 15 17 16 18 17 20
REMARK H PARENT 10 11 16 19 17 21
ROOT
ATOM      1  C   UNL     1      50.099  53.967  19.158  1.00  0.00    +0.028 C 
ENDROOT
BRANCH   1   2
ATOM      2  C   UNL     1      48.924  54.649  19.870  1.00  0.00    +0.002 C 
BRANCH   2   3
ATOM      3  C   UNL     1      48.672  56.082  19.384  1.00  0.00    +0.000 C 
BRANCH   3   4
ATOM      4  C   UNL     1      47.628  56.831  20.217  1.00  0.00    -0.000 C 
BRANCH   4   5
ATOM      5  C   UNL     1      48.162  58.128  20.831  1.00  0.00    -0.003 C 
ATOM      6  C   UNL     1      49.254  57.908  21.867  1.00  0.00    +0.004 C 
ENDBRANCH   4   5
ENDBRANCH   3   4
ENDBRANCH   2   3
ENDBRANCH   1   2
BRANCH   1   7
ATOM      7  C   UNL     1      51.253  53.493  20.078  1.00  0.00    +0.116 C 
BRANCH   7   8
ATOM      8  C   UNL     1      52.393  52.745  19.342  1.00  0.00    +0.134 C 
ATOM      9  C   UNL     1      52.463  51.267  19.722  1.00  0.00    +0.040 C 
BRANCH   8  10
ATOM     10  O   UNL     1      52.177  52.825  17.930  1.00  0.00    -0.391 OA
ATOM     11  H   UNL     1      51.235  52.643  17.762  1.00  0.00    +0.211 HD
ENDBRANCH   8  10
ENDBRANCH   7   8
BRANCH   7  12
ATOM     12  N   UNL     1      51.729  54.571  20.941  1.00  0.00    -0.331 N 
ATOM     13  C   UNL     1      51.583  54.607  22.301  1.00  0.00    +0.200 A 
ATOM     14  C   UNL     1      52.402  55.704  20.572  1.00  0.00    +0.118 A 
ATOM     15  N   UNL     1      52.123  55.687  22.816  1.00  0.00    -0.235 NA
ATOM     16  C   UNL     1      52.643  56.397  21.743  1.00  0.00    +0.112 A 
BRANCH  16  17
ATOM     17  C   UNL     1      53.319  57.667  21.946  1.00  0.00    +0.111 C 
ATOM     18  N   UNL     1      54.350  57.746  22.721  1.00  0.00    -0.292 NA
ATOM     19  H   UNL     1      54.511  56.791  23.085  1.00  0.00    +0.188 HD
BRANCH  17  20
ATOM     20  S   UNL     1      52.740  59.089  21.143  1.00  0.00    -0.122 SA
ATOM     21  H   UNL     1      51.919  58.411  20.329  1.00  0.00    +0.110 HD
ENDBRANCH  17  20
ENDBRANCH  16  17
ENDBRANCH   7  12
ENDBRANCH   1   7
TORSDOF 10
ENDMDL
MODEL 4
REMARK VINA RESULT:    -6.080      6.271      8.326
REMARK INTER + INTRA:         -10.160
REMARK INTER:                  -9.268
REMARK INTRA:                  -0.892
REMARK UNBOUND:                -0.881
REMARK SMILES CCCCCCC(C(C)O)n1cnc(C(=N)S)c1
REMARK SMILES IDX 6 1 5 2 4 3 3 4 2 5 1 6 7 7 8 8 9 9 10 10 11 12 12 13 18 14
REMARK SMILES IDX 13 15 14 16 15 17 16 18 17 20
REMARK H PARENT 10 11 16 19 17 21
ROOT
ATOM      1  C   UNL     1      47.233  50.065  16.987  1.00  0.00    +0.028 C 
ENDROOT
BRANCH   1   2
ATOM      2  C   UNL     1      45.858  49.741  17.583  1.00  0.00    +0.002 C 
BRANCH   2   3
ATOM      3  C   UNL     1      45.113  48.638  16.820  1.00  0.00    +0.000 C 
BRANCH   3   4
ATOM      4  C   UNL     1      45.164  47.276  17.518  1.00  0.00    -0.000 C 
BRANCH   4   5
ATOM      5  C   UNL     1      45.409  47.378  19.026  1.00  0.00    -0.003 C 
ATOM      6  C   UNL     1      44.223  46.933  19.868  1.00  0.00    +0.004 C 
ENDBRANCH   4   5
ENDBRANCH   3   4
ENDBRANCH   2   3
ENDBRANCH   1   2
BRANCH   1   7
ATOM      7  C   UNL     1      48.386  49.122  17.416  1.00  0.00    +0.116 C 
BRANCH   7   8
ATOM      8  C   UNL     1      48.877  48.164  16.302  1.00  0.00    +0.134 C 
ATOM      9  C   UNL     1      48.604  46.697  16.630  1.00  0.00    +0.040 C 
BRANCH   8  10
ATOM     10  O   UNL     1      48.201  48.473  15.080  1.00  0.00    -0.391 OA
ATOM     11  H   UNL     1      48.265  47.694  14.498  1.00  0.00    +0.211 HD
ENDBRANCH   8  10
ENDBRANCH   7   8
BRANCH   7  12
ATOM     12  N   UNL     1      49.467  49.855  18.068  1.00  0.00    -0.331 N 
ATOM     13  C   UNL     1      50.061  49.491  19.245  1.00  0.00    +0.200 A 
ATOM     14  C   UNL     1      50.081  50.999  17.636  1.00  0.00    +0.118 A 
ATOM     15  N   UNL     1      51.014  50.328  19.583  1.00  0.00    -0.235 NA
ATOM     16  C   UNL     1      51.043  51.291  18.585  1.00  0.00    +0.112 A 
BRANCH  16  17
ATOM     17  C   UNL     1      51.989  52.393  18.638  1.00  0.00    +0.111 C 
ATOM     18  N   UNL     1      52.898  52.523  17.729  1.00  0.00    -0.292 NA
ATOM     19  H   UNL     1      52.764  51.735  17.071  1.00  0.00    +0.188 HD
BRANCH  17  20
ATOM     20  S   UNL     1      51.898  53.544  19.929  1.00  0.00    -0.122 SA
ATOM     21  H   UNL     1      50.653  53.933  19.623  1.00  0.00    +0.110 HD
ENDBRANCH  17  20
ENDBRANCH  16  17
ENDBRANCH   7  12
ENDBRANCH   1   7
TORSDOF 10
ENDMDL
MODEL 5
REMARK VINA RESULT:    -6.022      4.285      6.383
REMARK INTER + INTRA:         -10.072
REMARK INTER:                  -9.393
REMARK INTRA:                  -0.679
REMARK UNBOUND:                -0.881
REMARK SMILES CCCCCCC(C(C)O)n1cnc(C(=N)S)c1
REMARK SMILES IDX 6 1 5 2 4 3 3 4 2 5 1 6 7 7 8 8 9 9 10 10 11 12 12 13 18 14
REMARK SMILES IDX 13 15 14 16 15 17 16 18 17 20
REMARK H PARENT 10 11 16 19 17 21
ROOT
ATOM      1  C   UNL     1      50.869  51.070  18.510  1.00  0.00    +0.028 C 
ENDROOT
BRANCH   1   2
ATOM      2  C   UNL     1      49.550  51.101  17.730  1.00  0.00    +0.002 C 
BRANCH   2   3
ATOM      3  C   UNL     1      48.975  49.706  17.456  1.00  0.00    +0.000 C 
BRANCH   3   4
ATOM      4  C   UNL     1      47.482  49.591  17.775  1.00  0.00    -0.000 C 
BRANCH   4   5
ATOM      5  C   UNL     1      47.175  48.561  18.866  1.00  0.00    -0.003 C 
ATOM      6  C   UNL     1      45.879  47.798  18.637  1.00  0.00    +0.004 C 
ENDBRANCH   4   5
ENDBRANCH   3   4
ENDBRANCH   2   3
ENDBRANCH   1   2
BRANCH   1   7
ATOM      7  C   UNL     1      50.772  51.479  20.002  1.00  0.00    +0.116 C 
BRANCH   7   8
ATOM      8  C   UNL     1      51.327  50.425  20.992  1.00  0.00    +0.134 C 
ATOM      9  C   UNL     1      50.917  49.001  20.620  1.00  0.00    +0.040 C 
BRANCH   8  10
ATOM     10  O   UNL     1      52.756  50.483  20.996  1.00  0.00    -0.391 OA
ATOM     11  H   UNL     1      53.078  49.860  21.672  1.00  0.00    +0.211 HD
ENDBRANCH   8  10
ENDBRANCH   7   8
BRANCH   7  12
ATOM     12  N   UNL     1      51.302  52.821  20.226  1.00  0.00    -0.331 N 
ATOM     13  C   UNL     1      52.043  53.532  19.322  1.00  0.00    +0.200 A 
ATOM     14  C   UNL     1      51.153  53.604  21.339  1.00  0.00    +0.118 A 
ATOM     15  N   UNL     1      52.369  54.715  19.789  1.00  0.00    -0.235 NA
ATOM     16  C   UNL     1      51.821  54.782  21.062  1.00  0.00    +0.112 A 
BRANCH  16  17
ATOM     17  C   UNL     1      51.991  55.967  21.885  1.00  0.00    +0.111 C 
ATOM     18  N   UNL     1      52.046  55.871  23.172  1.00  0.00    -0.292 NA
ATOM     19  H   UNL     1      51.947  54.864  23.391  1.00  0.00    +0.188 HD
BRANCH  17  20
ATOM     20  S   UNL     1      52.123  57.524  21.137  1.00  0.00    -0.122 SA
ATOM     21  H   UNL     1      51.850  57.064  19.909  1.00  0.00    +0.110 HD
ENDBRANCH  17  20
ENDBRANCH  16  17
ENDBRANCH   7  12
ENDBRANCH   1   7
TORSDOF 10
ENDMDL
