MODEL 1
REMARK VINA RESULT:    -6.908      0.000      0.000
REMARK INTER + INTRA:         -10.894
REMARK INTER:                 -10.139
REMARK INTRA:                  -0.755
REMARK UNBOUND:                -0.755
REMARK SMILES CCCCCCC(C(C)O)n1cnc2c(N)ccnc21
REMARK SMILES IDX 5 1 4 2 3 3 2 4 1 5 6 6 7 7 8 8 9 9 10 10 11 12 12 13 20 14
REMARK SMILES IDX 13 15 19 16 14 17 18 18 15 19 17 20 16 21
REMARK H PARENT 10 11 16 22 16 23
ROOT
ATOM      1  C   UNL     1      49.386  57.405  21.860  1.00  0.00    +0.002 C 
ENDROOT
BRANCH   1   2
ATOM      2  C   UNL     1      48.518  57.115  20.631  1.00  0.00    +0.000 C 
BRANCH   2   3
ATOM      3  C   UNL     1      47.396  58.135  20.428  1.00  0.00    -0.000 C 
BRANCH   3   4
ATOM      4  C   UNL     1      47.603  58.937  19.143  1.00  0.00    -0.003 C 
ATOM      5  C   UNL     1      47.076  60.356  19.281  1.00  0.00    +0.004 C 
ENDBRANCH   3   4
ENDBRANCH   2   3
ENDBRANCH   1   2
BRANCH   1   6
ATOM      6  C   UNL     1      50.677  58.165  21.526  1.00  0.00    +0.028 C 
BRANCH   6   7
ATOM      7  C   UNL     1      51.953  57.310  21.719  1.00  0.00    +0.118 C 
BRANCH   7   8
ATOM      8  C   UNL     1      53.231  58.187  21.648  1.00  0.00    +0.134 C 
ATOM      9  C   UNL     1      54.468  57.495  22.219  1.00  0.00    +0.040 C 
BRANCH   8  10
ATOM     10  O   UNL     1      53.021  59.379  22.417  1.00  0.00    -0.391 OA
ATOM     11  H   UNL     1      52.290  59.867  21.999  1.00  0.00    +0.211 HD
ENDBRANCH   8  10
ENDBRANCH   7   8
BRANCH   7  12
ATOM     12  N   UNL     1      51.998  56.178  20.803  1.00  0.00    -0.310 N 
ATOM     13  C   UNL     1      52.162  56.263  19.444  1.00  0.00    +0.202 A 
ATOM     14  C   UNL     1      51.887  54.853  21.124  1.00  0.00    +0.162 A 
ATOM     15  N   UNL     1      52.167  55.078  18.871  1.00  0.00    -0.233 NA
ATOM     16  N   UNL     1      51.701  54.313  22.343  1.00  0.00    -0.237 NA
ATOM     17  C   UNL     1      52.005  54.187  19.910  1.00  0.00    +0.131 A 
ATOM     18  C   UNL     1      51.655  52.958  22.300  1.00  0.00    +0.116 A 
ATOM     19  C   UNL     1      51.931  52.780  19.912  1.00  0.00    +0.063 A 
ATOM     20  C   UNL     1      51.761  52.169  21.158  1.00  0.00    +0.048 A 
BRANCH  19  21
ATOM     21  N   UNL     1      52.070  52.007  18.746  1.00  0.00    -0.397 N 
ATOM     22  H   UNL     1      51.593  52.470  17.967  1.00  0.00    +0.156 HD
ATOM     23  H   UNL     1      51.750  51.052  18.865  1.00  0.00    +0.156 HD
ENDBRANCH  19  21
ENDBRANCH   7  12
ENDBRANCH   6   7
ENDBRANCH   1   6
TORSDOF 9
ENDMDL
MODEL 2
REMARK VINA RESULT:    -6.823      4.149      6.962
REMARK INTER + INTRA:         -10.769
REMARK INTER:                 -10.033
REMARK INTRA:                  -0.736
REMARK UNBOUND:                -0.755
REMARK SMILES CCCCCCC(C(C)O)n1cnc2c(N)ccnc21
REMARK SMILES IDX 5 1 4 2 3 3 2 4 1 5 6 6 7 7 8 8 9 9 10 10 11 12 12 13 20 14
REMARK SMILES IDX 13 15 19 16 14 17 18 18 15 19 17 20 16 21
REMARK H PARENT 10 11 16 22 16 23
ROOT
ATOM      1  C   UNL     1      49.840  49.361  19.859  1.00  0.00    +0.002 C 
ENDROOT
BRANCH   1   2
ATOM      2  C   UNL     1      49.106  48.830  18.623  1.00  0.00    +0.000 C 
BRANCH   2   3
ATOM      3  C   UNL     1      47.585  48.813  18.783  1.00  0.00    -0.000 C 
BRANCH   3   4
ATOM      4  C   UNL     1      46.886  48.767  17.424  1.00  0.00    -0.003 C 
ATOM      5  C   UNL     1      45.436  49.213  17.528  1.00  0.00    +0.004 C 
ENDBRANCH   3   4
ENDBRANCH   2   3
ENDBRANCH   1   2
BRANCH   1   6
ATOM      6  C   UNL     1      50.814  50.503  19.542  1.00  0.00    +0.028 C 
BRANCH   6   7
ATOM      7  C   UNL     1      50.106  51.864  19.326  1.00  0.00    +0.118 C 
BRANCH   7   8
ATOM      8  C   UNL     1      50.120  52.271  17.829  1.00  0.00    +0.134 C 
ATOM      9  C   UNL     1      48.743  52.194  17.172  1.00  0.00    +0.040 C 
BRANCH   8  10
ATOM     10  O   UNL     1      50.982  51.376  17.111  1.00  0.00    -0.391 OA
ATOM     11  H   UNL     1      51.125  51.760  16.228  1.00  0.00    +0.211 HD
ENDBRANCH   8  10
ENDBRANCH   7   8
BRANCH   7  12
ATOM     12  N   UNL     1      50.639  52.903  20.195  1.00  0.00    -0.310 N 
ATOM     13  C   UNL     1      51.752  52.781  20.988  1.00  0.00    +0.202 A 
ATOM     14  C   UNL     1      50.139  54.163  20.377  1.00  0.00    +0.162 A 
ATOM     15  N   UNL     1      52.001  53.883  21.665  1.00  0.00    -0.233 NA
ATOM     16  N   UNL     1      49.048  54.707  19.806  1.00  0.00    -0.237 NA
ATOM     17  C   UNL     1      51.007  54.758  21.285  1.00  0.00    +0.131 A 
ATOM     18  C   UNL     1      48.851  55.990  20.197  1.00  0.00    +0.116 A 
ATOM     19  C   UNL     1      50.751  56.086  21.678  1.00  0.00    +0.063 A 
ATOM     20  C   UNL     1      49.641  56.704  21.095  1.00  0.00    +0.048 A 
BRANCH  19  21
ATOM     21  N   UNL     1      51.582  56.792  22.566  1.00  0.00    -0.397 N 
ATOM     22  H   UNL     1      51.154  57.692  22.798  1.00  0.00    +0.156 HD
ATOM     23  H   UNL     1      52.527  56.907  22.214  1.00  0.00    +0.156 HD
ENDBRANCH  19  21
ENDBRANCH   7  12
ENDBRANCH   6   7
ENDBRANCH   1   6
TORSDOF 9
ENDMDL
MODEL 3
REMARK VINA RESULT:    -6.653      4.130      6.854
REMARK INTER + INTRA:         -10.521
REMARK INTER:                 -10.045
REMARK INTRA:                  -0.475
REMARK UNBOUND:                -0.755
REMARK SMILES CCCCCCC(C(C)O)n1cnc2c(N)ccnc21
REMARK SMILES IDX 5 1 4 2 3 3 2 4 1 5 6 6 7 7 8 8 9 9 10 10 11 12 12 13 20 14
REMARK SMILES IDX 13 15 19 16 14 17 18 18 15 19 17 20 16 21
REMARK H PARENT 10 11 16 22 16 23
ROOT
ATOM      1  C   UNL     1      48.770  50.467  17.706  1.00  0.00    +0.002 C 
ENDROOT
BRANCH   1   2
ATOM      2  C   UNL     1      47.689  49.414  17.970  1.00  0.00    +0.000 C 
BRANCH   2   3
ATOM      3  C   UNL     1      46.322  49.792  17.396  1.00  0.00    -0.000 C 
BRANCH   3   4
ATOM      4  C   UNL     1      45.335  48.630  17.506  1.00  0.00    -0.003 C 
ATOM      5  C   UNL     1      45.637  47.755  18.712  1.00  0.00    +0.004 C 
ENDBRANCH   3   4
ENDBRANCH   2   3
ENDBRANCH   1   2
BRANCH   1   6
ATOM      6  C   UNL     1      49.700  50.696  18.905  1.00  0.00    +0.028 C 
BRANCH   6   7
ATOM      7  C   UNL     1      50.742  51.816  18.661  1.00  0.00    +0.118 C 
BRANCH   7   8
ATOM      8  C   UNL     1      52.054  51.239  18.067  1.00  0.00    +0.134 C 
ATOM      9  C   UNL     1      52.815  50.344  19.043  1.00  0.00    +0.040 C 
BRANCH   8  10
ATOM     10  O   UNL     1      52.926  52.326  17.722  1.00  0.00    -0.391 OA
ATOM     11  H   UNL     1      53.154  52.225  16.781  1.00  0.00    +0.211 HD
ENDBRANCH   8  10
ENDBRANCH   7   8
BRANCH   7  12
ATOM     12  N   UNL     1      50.972  52.620  19.853  1.00  0.00    -0.310 N 
ATOM     13  C   UNL     1      50.858  52.174  21.145  1.00  0.00    +0.202 A 
ATOM     14  C   UNL     1      51.336  53.937  19.902  1.00  0.00    +0.162 A 
ATOM     15  N   UNL     1      51.127  53.119  22.021  1.00  0.00    -0.233 NA
ATOM     16  N   UNL     1      51.546  54.773  18.868  1.00  0.00    -0.237 NA
ATOM     17  C   UNL     1      51.437  54.224  21.258  1.00  0.00    +0.131 A 
ATOM     18  C   UNL     1      51.914  56.012  19.278  1.00  0.00    +0.116 A 
ATOM     19  C   UNL     1      51.803  55.531  21.637  1.00  0.00    +0.063 A 
ATOM     20  C   UNL     1      52.055  56.431  20.598  1.00  0.00    +0.048 A 
BRANCH  19  21
ATOM     21  N   UNL     1      51.965  55.918  22.979  1.00  0.00    -0.397 N 
ATOM     22  H   UNL     1      52.945  55.808  23.253  1.00  0.00    +0.156 HD
ATOM     23  H   UNL     1      51.343  55.424  23.610  1.00  0.00    +0.156 HD
ENDBRANCH  19  21
ENDBRANCH   7  12
ENDBRANCH   6   7
ENDBRANCH   1   6
TORSDOF 9
ENDMDL
MODEL 4
REMARK VINA RESULT:    -6.598      6.396      8.822
REMARK INTER + INTRA:         -10.439
REMARK INTER:                  -9.636
REMARK INTRA:                  -0.802
REMARK UNBOUND:                -0.755
REMARK SMILES CCCCCCC(C(C)O)n1cnc2c(N)ccnc21
REMARK SMILES IDX 5 1 4 2 3 3 2 4 1 5 6 6 7 7 8 8 9 9 10 10 11 12 12 13 20 14
REMARK SMILES IDX 13 15 19 16 14 17 18 18 15 19 17 20 16 21
REMARK H PARENT 10 11 16 22 16 23
ROOT
ATOM      1  C   UNL     1      46.008  49.575  17.295  1.00  0.00    +0.002 C 
ENDROOT
BRANCH   1   2
ATOM      2  C   UNL     1      44.812  48.649  17.540  1.00  0.00    +0.000 C 
BRANCH   2   3
ATOM      3  C   UNL     1      44.771  47.450  16.591  1.00  0.00    -0.000 C 
BRANCH   3   4
ATOM      4  C   UNL     1      44.588  47.897  15.141  1.00  0.00    -0.003 C 
ATOM      5  C   UNL     1      45.817  47.584  14.302  1.00  0.00    +0.004 C 
ENDBRANCH   3   4
ENDBRANCH   2   3
ENDBRANCH   1   2
BRANCH   1   6
ATOM      6  C   UNL     1      47.363  48.879  17.478  1.00  0.00    +0.028 C 
BRANCH   6   7
ATOM      7  C   UNL     1      48.568  49.828  17.266  1.00  0.00    +0.118 C 
BRANCH   7   8
ATOM      8  C   UNL     1      49.326  49.486  15.956  1.00  0.00    +0.134 C 
ATOM      9  C   UNL     1      48.632  50.018  14.703  1.00  0.00    +0.040 C 
BRANCH   8  10
ATOM     10  O   UNL     1      49.406  48.060  15.823  1.00  0.00    -0.391 OA
ATOM     11  H   UNL     1      48.937  47.673  16.582  1.00  0.00    +0.211 HD
ENDBRANCH   8  10
ENDBRANCH   7   8
BRANCH   7  12
ATOM     12  N   UNL     1      49.445  49.868  18.428  1.00  0.00    -0.310 N 
ATOM     13  C   UNL     1      49.683  48.820  19.280  1.00  0.00    +0.202 A 
ATOM     14  C   UNL     1      50.177  50.935  18.872  1.00  0.00    +0.162 A 
ATOM     15  N   UNL     1      50.522  49.143  20.241  1.00  0.00    -0.233 NA
ATOM     16  N   UNL     1      50.235  52.172  18.344  1.00  0.00    -0.237 NA
ATOM     17  C   UNL     1      50.846  50.460  19.993  1.00  0.00    +0.131 A 
ATOM     18  C   UNL     1      51.079  52.982  19.029  1.00  0.00    +0.116 A 
ATOM     19  C   UNL     1      51.697  51.343  20.686  1.00  0.00    +0.063 A 
ATOM     20  C   UNL     1      51.810  52.635  20.163  1.00  0.00    +0.048 A 
BRANCH  19  21
ATOM     21  N   UNL     1      52.445  50.956  21.811  1.00  0.00    -0.397 N 
ATOM     22  H   UNL     1      53.097  51.703  22.065  1.00  0.00    +0.156 HD
ATOM     23  H   UNL     1      52.923  50.071  21.682  1.00  0.00    +0.156 HD
ENDBRANCH  19  21
ENDBRANCH   7  12
ENDBRANCH   6   7
ENDBRANCH   1   6
TORSDOF 9
ENDMDL
MODEL 5
REMARK VINA RESULT:    -6.506      5.496      8.025
REMARK INTER + INTRA:         -10.305
REMARK INTER:                  -9.951
REMARK INTRA:                  -0.354
REMARK UNBOUND:                -0.755
REMARK SMILES CCCCCCC(C(C)O)n1cnc2c(N)ccnc21
REMARK SMILES IDX 5 1 4 2 3 3 2 4 1 5 6 6 7 7 8 8 9 9 10 10 11 12 12 13 20 14
REMARK SMILES IDX 13 15 19 16 14 17 18 18 15 19 17 20 16 21
REMARK H PARENT 10 11 16 22 16 23
ROOT
ATOM      1  C   UNL     1      47.391  48.949  18.435  1.00  0.00    +0.002 C 
ENDROOT
BRANCH   1   2
ATOM      2  C   UNL     1      46.217  49.449  17.586  1.00  0.00    +0.000 C 
BRANCH   2   3
ATOM      3  C   UNL     1      44.966  48.579  17.709  1.00  0.00    -0.000 C 
BRANCH   3   4
ATOM      4  C   UNL     1      45.284  47.243  18.380  1.00  0.00    -0.003 C 
ATOM      5  C   UNL     1      44.471  47.049  19.650  1.00  0.00    +0.004 C 
ENDBRANCH   3   4
ENDBRANCH   2   3
ENDBRANCH   1   2
BRANCH   1   6
ATOM      6  C   UNL     1      48.754  49.135  17.756  1.00  0.00    +0.028 C 
BRANCH   6   7
ATOM      7  C   UNL     1      48.933  50.539  17.128  1.00  0.00    +0.118 C 
BRANCH   7   8
ATOM      8  C   UNL     1      49.752  50.464  15.812  1.00  0.00    +0.134 C 
ATOM      9  C   UNL     1      49.331  49.307  14.907  1.00  0.00    +0.040 C 
BRANCH   8  10
ATOM     10  O   UNL     1      51.136  50.265  16.135  1.00  0.00    -0.391 OA
ATOM     11  H   UNL     1      51.644  50.939  15.650  1.00  0.00    +0.211 HD
ENDBRANCH   8  10
ENDBRANCH   7   8
BRANCH   7  12
ATOM     12  N   UNL     1      49.482  51.498  18.076  1.00  0.00    -0.310 N 
ATOM     13  C   UNL     1      49.146  52.826  18.146  1.00  0.00    +0.202 A 
ATOM     14  C   UNL     1      50.412  51.256  19.049  1.00  0.00    +0.162 A 
ATOM     15  N   UNL     1      49.799  53.452  19.103  1.00  0.00    -0.233 NA
ATOM     16  N   UNL     1      51.027  50.091  19.330  1.00  0.00    -0.237 NA
ATOM     17  C   UNL     1      50.586  52.481  19.682  1.00  0.00    +0.131 A 
ATOM     18  C   UNL     1      51.883  50.203  20.376  1.00  0.00    +0.116 A 
ATOM     19  C   UNL     1      51.502  52.554  20.751  1.00  0.00    +0.063 A 
ATOM     20  C   UNL     1      52.149  51.365  21.097  1.00  0.00    +0.048 A 
BRANCH  19  21
ATOM     21  N   UNL     1      51.729  53.735  21.480  1.00  0.00    -0.397 N 
ATOM     22  H   UNL     1      52.707  54.017  21.381  1.00  0.00    +0.156 HD
ATOM     23  H   UNL     1      51.460  53.655  22.454  1.00  0.00    +0.156 HD
ENDBRANCH  19  21
ENDBRANCH   7  12
ENDBRANCH   6   7
ENDBRANCH   1   6
TORSDOF 9
ENDMDL
