MODEL 1
REMARK VINA RESULT:    -6.887      0.000      0.000
REMARK INTER + INTRA:         -11.309
REMARK INTER:                 -10.109
REMARK INTRA:                  -1.200
REMARK UNBOUND:                -1.200
REMARK SMILES CCCCCCC(C(C)O)n1cnc2c(N)nccc21
REMARK SMILES IDX 5 1 4 2 3 3 2 4 1 5 6 6 7 7 8 8 9 9 10 10 11 12 12 13 20 14
REMARK SMILES IDX 13 15 19 16 14 17 18 18 15 19 17 20 16 21
REMARK H PARENT 10 11 16 22 16 23
ROOT
ATOM      1  C   UNL     1      49.353  57.495  21.750  1.00  0.00    +0.002 C 
ENDROOT
BRANCH   1   2
ATOM      2  C   UNL     1      48.208  57.674  20.747  1.00  0.00    +0.000 C 
BRANCH   2   3
ATOM      3  C   UNL     1      48.327  56.760  19.525  1.00  0.00    -0.000 C 
BRANCH   3   4
ATOM      4  C   UNL     1      48.253  55.272  19.876  1.00  0.00    -0.003 C 
ATOM      5  C   UNL     1      48.646  54.358  18.727  1.00  0.00    +0.004 C 
ENDBRANCH   3   4
ENDBRANCH   2   3
ENDBRANCH   1   2
BRANCH   1   6
ATOM      6  C   UNL     1      50.722  57.892  21.183  1.00  0.00    +0.028 C 
BRANCH   6   7
ATOM      7  C   UNL     1      51.840  56.895  21.569  1.00  0.00    +0.117 C 
BRANCH   7   8
ATOM      8  C   UNL     1      53.198  57.620  21.766  1.00  0.00    +0.134 C 
ATOM      9  C   UNL     1      53.082  59.141  21.827  1.00  0.00    +0.040 C 
BRANCH   8  10
ATOM     10  O   UNL     1      53.892  57.137  22.917  1.00  0.00    -0.391 OA
ATOM     11  H   UNL     1      54.569  57.790  23.170  1.00  0.00    +0.211 HD
ENDBRANCH   8  10
ENDBRANCH   7   8
BRANCH   7  12
ATOM     12  N   UNL     1      51.938  55.778  20.634  1.00  0.00    -0.325 N 
ATOM     13  C   UNL     1      52.143  55.881  19.283  1.00  0.00    +0.201 A 
ATOM     14  C   UNL     1      51.853  54.438  20.945  1.00  0.00    +0.074 A 
ATOM     15  N   UNL     1      52.227  54.704  18.707  1.00  0.00    -0.233 NA
ATOM     16  C   UNL     1      51.635  53.733  22.126  1.00  0.00    +0.049 A 
ATOM     17  C   UNL     1      52.053  53.789  19.727  1.00  0.00    +0.131 A 
ATOM     18  C   UNL     1      51.624  52.351  21.983  1.00  0.00    +0.116 A 
ATOM     19  C   UNL     1      52.045  52.375  19.683  1.00  0.00    +0.151 A 
ATOM     20  N   UNL     1      51.812  51.680  20.823  1.00  0.00    -0.237 NA
BRANCH  19  21
ATOM     21  N   UNL     1      52.237  51.655  18.510  1.00  0.00    -0.382 N 
ATOM     22  H   UNL     1      52.475  50.686  18.687  1.00  0.00    +0.158 HD
ATOM     23  H   UNL     1      52.811  52.171  17.857  1.00  0.00    +0.158 HD
ENDBRANCH  19  21
ENDBRANCH   7  12
ENDBRANCH   6   7
ENDBRANCH   1   6
TORSDOF 9
ENDMDL
MODEL 2
REMARK VINA RESULT:    -6.694      3.205      5.918
REMARK INTER + INTRA:         -11.025
REMARK INTER:                 -10.153
REMARK INTRA:                  -0.872
REMARK UNBOUND:                -1.200
REMARK SMILES CCCCCCC(C(C)O)n1cnc2c(N)nccc21
REMARK SMILES IDX 5 1 4 2 3 3 2 4 1 5 6 6 7 7 8 8 9 9 10 10 11 12 12 13 20 14
REMARK SMILES IDX 13 15 19 16 14 17 18 18 15 19 17 20 16 21
REMARK H PARENT 10 11 16 22 16 23
ROOT
ATOM      1  C   UNL     1      49.759  51.674  17.546  1.00  0.00    +0.002 C 
ENDROOT
BRANCH   1   2
ATOM      2  C   UNL     1      48.275  51.956  17.285  1.00  0.00    +0.000 C 
BRANCH   2   3
ATOM      3  C   UNL     1      47.576  50.838  16.508  1.00  0.00    -0.000 C 
BRANCH   3   4
ATOM      4  C   UNL     1      46.540  50.081  17.343  1.00  0.00    -0.003 C 
ATOM      5  C   UNL     1      47.144  48.999  18.223  1.00  0.00    +0.004 C 
ENDBRANCH   3   4
ENDBRANCH   2   3
ENDBRANCH   1   2
BRANCH   1   6
ATOM      6  C   UNL     1      50.033  51.127  18.954  1.00  0.00    +0.028 C 
BRANCH   6   7
ATOM      7  C   UNL     1      51.480  51.397  19.427  1.00  0.00    +0.117 C 
BRANCH   7   8
ATOM      8  C   UNL     1      52.169  50.091  19.907  1.00  0.00    +0.134 C 
ATOM      9  C   UNL     1      51.193  48.964  20.233  1.00  0.00    +0.040 C 
BRANCH   8  10
ATOM     10  O   UNL     1      53.145  49.635  18.970  1.00  0.00    -0.391 OA
ATOM     11  H   UNL     1      54.026  49.926  19.269  1.00  0.00    +0.211 HD
ENDBRANCH   8  10
ENDBRANCH   7   8
BRANCH   7  12
ATOM     12  N   UNL     1      51.551  52.460  20.426  1.00  0.00    -0.325 N 
ATOM     13  C   UNL     1      51.535  52.283  21.785  1.00  0.00    +0.201 A 
ATOM     14  C   UNL     1      51.656  53.811  20.179  1.00  0.00    +0.074 A 
ATOM     15  N   UNL     1      51.652  53.421  22.429  1.00  0.00    -0.233 NA
ATOM     16  C   UNL     1      51.697  54.580  19.018  1.00  0.00    +0.049 A 
ATOM     17  C   UNL     1      51.735  54.388  21.446  1.00  0.00    +0.131 A 
ATOM     18  C   UNL     1      51.811  55.948  19.232  1.00  0.00    +0.116 A 
ATOM     19  C   UNL     1      51.869  55.791  21.565  1.00  0.00    +0.151 A 
ATOM     20  N   UNL     1      51.888  56.550  20.443  1.00  0.00    -0.237 NA
BRANCH  19  21
ATOM     21  N   UNL     1      51.953  56.441  22.790  1.00  0.00    -0.382 N 
ATOM     22  H   UNL     1      52.729  57.092  22.830  1.00  0.00    +0.158 HD
ATOM     23  H   UNL     1      51.845  55.788  23.555  1.00  0.00    +0.158 HD
ENDBRANCH  19  21
ENDBRANCH   7  12
ENDBRANCH   6   7
ENDBRANCH   1   6
TORSDOF 9
ENDMDL
MODEL 3
REMARK VINA RESULT:    -6.453      1.191      2.281
REMARK INTER + INTRA:         -10.671
REMARK INTER:                  -9.927
REMARK INTRA:                  -0.743
REMARK UNBOUND:                -1.200
REMARK SMILES CCCCCCC(C(C)O)n1cnc2c(N)nccc21
REMARK SMILES IDX 5 1 4 2 3 3 2 4 1 5 6 6 7 7 8 8 9 9 10 10 11 12 12 13 20 14
REMARK SMILES IDX 13 15 19 16 14 17 18 18 15 19 17 20 16 21
REMARK H PARENT 10 11 16 22 16 23
ROOT
ATOM      1  C   UNL     1      49.348  57.787  21.770  1.00  0.00    +0.002 C 
ENDROOT
BRANCH   1   2
ATOM      2  C   UNL     1      48.120  57.705  20.856  1.00  0.00    +0.000 C 
BRANCH   2   3
ATOM      3  C   UNL     1      48.299  56.728  19.691  1.00  0.00    -0.000 C 
BRANCH   3   4
ATOM      4  C   UNL     1      47.998  57.356  18.328  1.00  0.00    -0.003 C 
ATOM      5  C   UNL     1      47.574  58.814  18.412  1.00  0.00    +0.004 C 
ENDBRANCH   3   4
ENDBRANCH   2   3
ENDBRANCH   1   2
BRANCH   1   6
ATOM      6  C   UNL     1      50.669  57.535  21.031  1.00  0.00    +0.028 C 
BRANCH   6   7
ATOM      7  C   UNL     1      51.784  57.010  21.965  1.00  0.00    +0.117 C 
BRANCH   7   8
ATOM      8  C   UNL     1      53.175  57.561  21.549  1.00  0.00    +0.134 C 
ATOM      9  C   UNL     1      53.126  58.960  20.941  1.00  0.00    +0.040 C 
BRANCH   8  10
ATOM     10  O   UNL     1      54.100  57.533  22.636  1.00  0.00    -0.391 OA
ATOM     11  H   UNL     1      54.656  56.737  22.553  1.00  0.00    +0.211 HD
ENDBRANCH   8  10
ENDBRANCH   7   8
BRANCH   7  12
ATOM     12  N   UNL     1      51.776  55.555  22.079  1.00  0.00    -0.325 N 
ATOM     13  C   UNL     1      51.564  54.843  23.230  1.00  0.00    +0.201 A 
ATOM     14  C   UNL     1      51.969  54.651  21.056  1.00  0.00    +0.074 A 
ATOM     15  N   UNL     1      51.575  53.547  23.016  1.00  0.00    -0.233 NA
ATOM     16  C   UNL     1      52.242  54.777  19.696  1.00  0.00    +0.049 A 
ATOM     17  C   UNL     1      51.821  53.405  21.664  1.00  0.00    +0.131 A 
ATOM     18  C   UNL     1      52.363  53.572  19.015  1.00  0.00    +0.116 A 
ATOM     19  C   UNL     1      51.943  52.231  20.884  1.00  0.00    +0.151 A 
ATOM     20  N   UNL     1      52.230  52.342  19.565  1.00  0.00    -0.237 NA
BRANCH  19  21
ATOM     21  N   UNL     1      51.809  50.954  21.416  1.00  0.00    -0.382 N 
ATOM     22  H   UNL     1      52.263  50.250  20.846  1.00  0.00    +0.158 HD
ATOM     23  H   UNL     1      50.858  50.782  21.712  1.00  0.00    +0.158 HD
ENDBRANCH  19  21
ENDBRANCH   7  12
ENDBRANCH   6   7
ENDBRANCH   1   6
TORSDOF 9
ENDMDL
MODEL 4
REMARK VINA RESULT:    -6.450      1.578      3.064
REMARK INTER + INTRA:         -10.667
REMARK INTER:                 -10.095
REMARK INTRA:                  -0.572
REMARK UNBOUND:                -1.200
REMARK SMILES CCCCCCC(C(C)O)n1cnc2c(N)nccc21
REMARK SMILES IDX 5 1 4 2 3 3 2 4 1 5 6 6 7 7 8 8 9 9 10 10 11 12 12 13 20 14
REMARK SMILES IDX 13 15 19 16 14 17 18 18 15 19 17 20 16 21
REMARK H PARENT 10 11 16 22 16 23
ROOT
ATOM      1  C   UNL     1      48.900  55.991  20.288  1.00  0.00    +0.002 C 
ENDROOT
BRANCH   1   2
ATOM      2  C   UNL     1      48.961  57.170  21.266  1.00  0.00    +0.000 C 
BRANCH   2   3
ATOM      3  C   UNL     1      47.826  58.178  21.068  1.00  0.00    -0.000 C 
BRANCH   3   4
ATOM      4  C   UNL     1      47.540  58.482  19.595  1.00  0.00    -0.003 C 
ATOM      5  C   UNL     1      47.177  59.935  19.335  1.00  0.00    +0.004 C 
ENDBRANCH   3   4
ENDBRANCH   2   3
ENDBRANCH   1   2
BRANCH   1   6
ATOM      6  C   UNL     1      50.284  55.450  19.906  1.00  0.00    +0.028 C 
BRANCH   6   7
ATOM      7  C   UNL     1      51.086  54.947  21.128  1.00  0.00    +0.117 C 
BRANCH   7   8
ATOM      8  C   UNL     1      52.391  55.765  21.323  1.00  0.00    +0.134 C 
ATOM      9  C   UNL     1      52.598  56.852  20.272  1.00  0.00    +0.040 C 
BRANCH   8  10
ATOM     10  O   UNL     1      52.468  56.331  22.632  1.00  0.00    -0.391 OA
ATOM     11  H   UNL     1      52.673  55.621  23.267  1.00  0.00    +0.211 HD
ENDBRANCH   8  10
ENDBRANCH   7   8
BRANCH   7  12
ATOM     12  N   UNL     1      51.337  53.509  21.076  1.00  0.00    -0.325 N 
ATOM     13  C   UNL     1      51.111  52.620  22.094  1.00  0.00    +0.201 A 
ATOM     14  C   UNL     1      51.830  52.801  20.002  1.00  0.00    +0.074 A 
ATOM     15  N   UNL     1      51.394  51.387  21.742  1.00  0.00    -0.233 NA
ATOM     16  C   UNL     1      52.254  53.157  18.723  1.00  0.00    +0.049 A 
ATOM     17  C   UNL     1      51.840  51.476  20.437  1.00  0.00    +0.131 A 
ATOM     18  C   UNL     1      52.689  52.095  17.940  1.00  0.00    +0.116 A 
ATOM     19  C   UNL     1      52.283  50.459  19.560  1.00  0.00    +0.151 A 
ATOM     20  N   UNL     1      52.717  50.797  18.322  1.00  0.00    -0.237 NA
BRANCH  19  21
ATOM     21  N   UNL     1      52.322  49.117  19.919  1.00  0.00    -0.382 N 
ATOM     22  H   UNL     1      53.021  48.598  19.398  1.00  0.00    +0.158 HD
ATOM     23  H   UNL     1      51.390  48.728  19.974  1.00  0.00    +0.158 HD
ENDBRANCH  19  21
ENDBRANCH   7  12
ENDBRANCH   6   7
ENDBRANCH   1   6
TORSDOF 9
ENDMDL
MODEL 5
REMARK VINA RESULT:    -6.429      1.434      2.151
REMARK INTER + INTRA:         -10.635
REMARK INTER:                 -10.003
REMARK INTRA:                  -0.632
REMARK UNBOUND:                -1.200
REMARK SMILES CCCCCCC(C(C)O)n1cnc2c(N)nccc21
REMARK SMILES IDX 5 1 4 2 3 3 2 4 1 5 6 6 7 7 8 8 9 9 10 10 11 12 12 13 20 14
REMARK SMILES IDX 13 15 19 16 14 17 18 18 15 19 17 20 16 21
REMARK H PARENT 10 11 16 22 16 23
ROOT
ATOM      1  C   UNL     1      49.255  57.362  21.273  1.00  0.00    +0.002 C 
ENDROOT
BRANCH   1   2
ATOM      2  C   UNL     1      47.919  57.034  20.596  1.00  0.00    +0.000 C 
BRANCH   2   3
ATOM      3  C   UNL     1      47.063  58.272  20.318  1.00  0.00    -0.000 C 
BRANCH   3   4
ATOM      4  C   UNL     1      47.710  59.241  19.325  1.00  0.00    -0.003 C 
ATOM      5  C   UNL     1      47.010  60.588  19.248  1.00  0.00    +0.004 C 
ENDBRANCH   3   4
ENDBRANCH   2   3
ENDBRANCH   1   2
BRANCH   1   6
ATOM      6  C   UNL     1      50.471  56.839  20.498  1.00  0.00    +0.028 C 
BRANCH   6   7
ATOM      7  C   UNL     1      51.169  55.657  21.210  1.00  0.00    +0.117 C 
BRANCH   7   8
ATOM      8  C   UNL     1      52.394  56.138  22.033  1.00  0.00    +0.134 C 
ATOM      9  C   UNL     1      52.815  57.573  21.728  1.00  0.00    +0.040 C 
BRANCH   8  10
ATOM     10  O   UNL     1      52.180  55.980  23.436  1.00  0.00    -0.391 OA
ATOM     11  H   UNL     1      51.951  56.847  23.817  1.00  0.00    +0.211 HD
ENDBRANCH   8  10
ENDBRANCH   7   8
BRANCH   7  12
ATOM     12  N   UNL     1      51.511  54.576  20.289  1.00  0.00    -0.325 N 
ATOM     13  C   UNL     1      51.697  54.704  18.938  1.00  0.00    +0.201 A 
ATOM     14  C   UNL     1      51.714  53.253  20.617  1.00  0.00    +0.074 A 
ATOM     15  N   UNL     1      52.036  53.566  18.378  1.00  0.00    -0.233 NA
ATOM     16  C   UNL     1      51.646  52.532  21.807  1.00  0.00    +0.049 A 
ATOM     17  C   UNL     1      52.058  52.647  19.409  1.00  0.00    +0.131 A 
ATOM     18  C   UNL     1      51.934  51.178  21.683  1.00  0.00    +0.116 A 
ATOM     19  C   UNL     1      52.354  51.264  19.384  1.00  0.00    +0.151 A 
ATOM     20  N   UNL     1      52.269  50.549  20.531  1.00  0.00    -0.237 NA
BRANCH  19  21
ATOM     21  N   UNL     1      52.704  50.588  18.221  1.00  0.00    -0.382 N 
ATOM     22  H   UNL     1      53.097  51.204  17.520  1.00  0.00    +0.158 HD
ATOM     23  H   UNL     1      51.970  49.955  17.934  1.00  0.00    +0.158 HD
ENDBRANCH  19  21
ENDBRANCH   7  12
ENDBRANCH   6   7
ENDBRANCH   1   6
TORSDOF 9
ENDMDL
