MODEL 1
REMARK VINA RESULT:    -7.333      0.000      0.000
REMARK INTER + INTRA:          -9.149
REMARK INTER:                  -8.833
REMARK INTRA:                  -0.316
REMARK UNBOUND:                -0.316
REMARK SMILES Nc1ccnc2c1ncn2C1CC(O)C(CO)O1
REMARK SMILES IDX 11 1 12 2 13 3 15 4 18 5 10 6 2 7 3 8 7 9 4 10 8 11 6 12
REMARK SMILES IDX 5 13 9 14 1 15 14 18 16 20 17 21
REMARK H PARENT 1 16 1 17 14 19 17 22
ROOT
ATOM      1  C   UNL     1      51.591  55.153  21.198  1.00  0.00    +0.225 C 
ATOM      2  C   UNL     1      50.422  56.023  20.734  1.00  0.00    +0.090 C 
ATOM      3  C   UNL     1      50.846  57.403  21.183  1.00  0.00    +0.150 C 
ATOM      4  C   UNL     1      52.357  57.342  21.010  1.00  0.00    +0.175 C 
ATOM      5  O   UNL     1      52.721  56.016  21.463  1.00  0.00    -0.350 OA
ENDROOT
BRANCH   1   6
ATOM      6  N   UNL     1      51.996  54.099  20.294  1.00  0.00    -0.288 N 
ATOM      7  C   UNL     1      52.345  50.773  19.194  1.00  0.00    +0.063 A 
ATOM      8  C   UNL     1      51.739  50.073  20.244  1.00  0.00    +0.048 A 
ATOM      9  C   UNL     1      52.381  52.179  19.315  1.00  0.00    +0.131 A 
ATOM     10  C   UNL     1      51.222  50.772  21.331  1.00  0.00    +0.116 A 
ATOM     11  N   UNL     1      52.888  53.156  18.485  1.00  0.00    -0.233 NA
ATOM     12  C   UNL     1      51.820  52.751  20.455  1.00  0.00    +0.164 A 
ATOM     13  N   UNL     1      51.240  52.116  21.493  1.00  0.00    -0.236 NA
ATOM     14  C   UNL     1      52.633  54.292  19.098  1.00  0.00    +0.204 A 
BRANCH   7  15
ATOM     15  N   UNL     1      52.874  50.076  18.087  1.00  0.00    -0.397 N 
ATOM     16  H   UNL     1      52.263  50.171  17.279  1.00  0.00    +0.156 HD
ATOM     17  H   UNL     1      52.970  49.086  18.296  1.00  0.00    +0.156 HD
ENDBRANCH   7  15
ENDBRANCH   1   6
BRANCH   3  18
ATOM     18  O   UNL     1      50.456  57.588  22.544  1.00  0.00    -0.390 OA
ATOM     19  H   UNL     1      50.638  58.510  22.804  1.00  0.00    +0.211 HD
ENDBRANCH   3  18
BRANCH   4  20
ATOM     20  C   UNL     1      53.148  58.378  21.803  1.00  0.00    +0.190 C 
BRANCH  20  21
ATOM     21  O   UNL     1      54.185  57.729  22.539  1.00  0.00    -0.394 OA
ATOM     22  H   UNL     1      53.778  56.935  22.938  1.00  0.00    +0.210 HD
ENDBRANCH  20  21
ENDBRANCH   4  20
TORSDOF 5
ENDMDL
MODEL 2
REMARK VINA RESULT:    -7.268      3.215      6.246
REMARK INTER + INTRA:          -9.071
REMARK INTER:                  -8.572
REMARK INTRA:                  -0.499
REMARK UNBOUND:                -0.316
REMARK SMILES Nc1ccnc2c1ncn2C1CC(O)C(CO)O1
REMARK SMILES IDX 11 1 12 2 13 3 15 4 18 5 10 6 2 7 3 8 7 9 4 10 8 11 6 12
REMARK SMILES IDX 5 13 9 14 1 15 14 18 16 20 17 21
REMARK H PARENT 1 16 1 17 14 19 17 22
ROOT
ATOM      1  C   UNL     1      52.134  52.116  20.388  1.00  0.00    +0.225 C 
ATOM      2  C   UNL     1      52.679  51.390  19.159  1.00  0.00    +0.090 C 
ATOM      3  C   UNL     1      52.400  49.941  19.486  1.00  0.00    +0.150 C 
ATOM      4  C   UNL     1      51.094  50.037  20.264  1.00  0.00    +0.175 C 
ATOM      5  O   UNL     1      51.255  51.211  21.097  1.00  0.00    -0.350 OA
ENDROOT
BRANCH   1   6
ATOM      6  N   UNL     1      51.438  53.359  20.136  1.00  0.00    -0.288 N 
ATOM      7  C   UNL     1      50.330  56.621  20.859  1.00  0.00    +0.063 A 
ATOM      8  C   UNL     1      50.893  56.826  22.124  1.00  0.00    +0.048 A 
ATOM      9  C   UNL     1      50.584  55.371  20.254  1.00  0.00    +0.131 A 
ATOM     10  C   UNL     1      51.648  55.817  22.715  1.00  0.00    +0.116 A 
ATOM     11  N   UNL     1      50.195  54.846  19.041  1.00  0.00    -0.233 NA
ATOM     12  C   UNL     1      51.361  54.452  20.956  1.00  0.00    +0.164 A 
ATOM     13  N   UNL     1      51.910  54.603  22.178  1.00  0.00    -0.236 NA
ATOM     14  C   UNL     1      50.730  53.645  18.999  1.00  0.00    +0.204 A 
BRANCH   7  15
ATOM     15  N   UNL     1      49.563  57.636  20.249  1.00  0.00    -0.397 N 
ATOM     16  H   UNL     1      50.128  58.468  20.095  1.00  0.00    +0.156 HD
ATOM     17  H   UNL     1      48.774  57.894  20.836  1.00  0.00    +0.156 HD
ENDBRANCH   7  15
ENDBRANCH   1   6
BRANCH   3  18
ATOM     18  O   UNL     1      53.474  49.428  20.277  1.00  0.00    -0.390 OA
ATOM     19  H   UNL     1      54.244  49.271  19.701  1.00  0.00    +0.211 HD
ENDBRANCH   3  18
BRANCH   4  20
ATOM     20  C   UNL     1      50.769  48.837  21.146  1.00  0.00    +0.190 C 
BRANCH  20  21
ATOM     21  O   UNL     1      51.451  47.682  20.655  1.00  0.00    -0.394 OA
ATOM     22  H   UNL     1      50.830  46.936  20.755  1.00  0.00    +0.210 HD
ENDBRANCH  20  21
ENDBRANCH   4  20
TORSDOF 5
ENDMDL
MODEL 3
REMARK VINA RESULT:    -7.023      1.557      1.564
REMARK INTER + INTRA:          -8.776
REMARK INTER:                  -8.188
REMARK INTRA:                  -0.587
REMARK UNBOUND:                -0.316
REMARK SMILES Nc1ccnc2c1ncn2C1CC(O)C(CO)O1
REMARK SMILES IDX 11 1 12 2 13 3 15 4 18 5 10 6 2 7 3 8 7 9 4 10 8 11 6 12
REMARK SMILES IDX 5 13 9 14 1 15 14 18 16 20 17 21
REMARK H PARENT 1 16 1 17 14 19 17 22
ROOT
ATOM      1  C   UNL     1      50.469  54.980  20.940  1.00  0.00    +0.225 C 
ATOM      2  C   UNL     1      49.610  56.216  20.670  1.00  0.00    +0.090 C 
ATOM      3  C   UNL     1      50.546  57.348  21.029  1.00  0.00    +0.150 C 
ATOM      4  C   UNL     1      51.897  56.788  20.608  1.00  0.00    +0.175 C 
ATOM      5  O   UNL     1      51.853  55.396  21.006  1.00  0.00    -0.350 OA
ENDROOT
BRANCH   1   6
ATOM      6  N   UNL     1      50.340  53.897  19.991  1.00  0.00    -0.288 N 
ATOM      7  C   UNL     1      50.480  50.553  18.900  1.00  0.00    +0.063 A 
ATOM      8  C   UNL     1      50.911  49.903  20.063  1.00  0.00    +0.048 A 
ATOM      9  C   UNL     1      50.314  51.952  18.987  1.00  0.00    +0.131 A 
ATOM     10  C   UNL     1      51.156  50.645  21.216  1.00  0.00    +0.116 A 
ATOM     11  N   UNL     1      49.911  52.885  18.055  1.00  0.00    -0.233 NA
ATOM     12  C   UNL     1      50.590  52.568  20.205  1.00  0.00    +0.164 A 
ATOM     13  N   UNL     1      51.019  51.985  21.343  1.00  0.00    -0.236 NA
ATOM     14  C   UNL     1      49.930  54.035  18.692  1.00  0.00    +0.204 A 
BRANCH   7  15
ATOM     15  N   UNL     1      50.229  49.813  17.725  1.00  0.00    -0.397 N 
ATOM     16  H   UNL     1      49.256  49.521  17.688  1.00  0.00    +0.156 HD
ATOM     17  H   UNL     1      50.811  48.980  17.691  1.00  0.00    +0.156 HD
ENDBRANCH   7  15
ENDBRANCH   1   6
BRANCH   3  18
ATOM     18  O   UNL     1      50.464  57.587  22.435  1.00  0.00    -0.390 OA
ATOM     19  H   UNL     1      51.293  57.293  22.855  1.00  0.00    +0.211 HD
ENDBRANCH   3  18
BRANCH   4  20
ATOM     20  C   UNL     1      53.109  57.456  21.249  1.00  0.00    +0.190 C 
BRANCH  20  21
ATOM     21  O   UNL     1      53.270  56.976  22.584  1.00  0.00    -0.394 OA
ATOM     22  H   UNL     1      53.078  56.019  22.554  1.00  0.00    +0.210 HD
ENDBRANCH  20  21
ENDBRANCH   4  20
TORSDOF 5
ENDMDL
MODEL 4
REMARK VINA RESULT:    -6.819      1.619      2.191
REMARK INTER + INTRA:          -8.530
REMARK INTER:                  -8.547
REMARK INTRA:                   0.017
REMARK UNBOUND:                -0.316
REMARK SMILES Nc1ccnc2c1ncn2C1CC(O)C(CO)O1
REMARK SMILES IDX 11 1 12 2 13 3 15 4 18 5 10 6 2 7 3 8 7 9 4 10 8 11 6 12
REMARK SMILES IDX 5 13 9 14 1 15 14 18 16 20 17 21
REMARK H PARENT 1 16 1 17 14 19 17 22
ROOT
ATOM      1  C   UNL     1      51.084  54.970  21.694  1.00  0.00    +0.225 C 
ATOM      2  C   UNL     1      50.156  55.941  20.963  1.00  0.00    +0.090 C 
ATOM      3  C   UNL     1      50.991  57.200  20.895  1.00  0.00    +0.150 C 
ATOM      4  C   UNL     1      52.398  56.639  20.743  1.00  0.00    +0.175 C 
ATOM      5  O   UNL     1      52.431  55.496  21.631  1.00  0.00    -0.350 OA
ENDROOT
BRANCH   1   6
ATOM      6  N   UNL     1      51.081  53.605  21.216  1.00  0.00    -0.288 N 
ATOM      7  C   UNL     1      50.405  51.002  18.946  1.00  0.00    +0.063 A 
ATOM      8  C   UNL     1      49.775  51.701  17.908  1.00  0.00    +0.048 A 
ATOM      9  C   UNL     1      50.821  51.768  20.056  1.00  0.00    +0.131 A 
ATOM     10  C   UNL     1      49.586  53.076  18.019  1.00  0.00    +0.116 A 
ATOM     11  N   UNL     1      51.458  51.411  21.225  1.00  0.00    -0.233 NA
ATOM     12  C   UNL     1      50.573  53.138  20.034  1.00  0.00    +0.164 A 
ATOM     13  N   UNL     1      49.960  53.848  19.065  1.00  0.00    -0.236 NA
ATOM     14  C   UNL     1      51.605  52.535  21.891  1.00  0.00    +0.204 A 
BRANCH   7  15
ATOM     15  N   UNL     1      50.601  49.609  18.846  1.00  0.00    -0.397 N 
ATOM     16  H   UNL     1      51.097  49.377  17.989  1.00  0.00    +0.156 HD
ATOM     17  H   UNL     1      49.711  49.117  18.839  1.00  0.00    +0.156 HD
ENDBRANCH   7  15
ENDBRANCH   1   6
BRANCH   3  18
ATOM     18  O   UNL     1      50.820  57.935  22.108  1.00  0.00    -0.390 OA
ATOM     19  H   UNL     1      51.671  58.343  22.353  1.00  0.00    +0.211 HD
ENDBRANCH   3  18
BRANCH   4  20
ATOM     20  C   UNL     1      53.526  57.596  21.115  1.00  0.00    +0.190 C 
BRANCH  20  21
ATOM     21  O   UNL     1      53.788  57.506  22.516  1.00  0.00    -0.394 OA
ATOM     22  H   UNL     1      53.600  58.390  22.885  1.00  0.00    +0.210 HD
ENDBRANCH  20  21
ENDBRANCH   4  20
TORSDOF 5
ENDMDL
MODEL 5
REMARK VINA RESULT:    -6.532      2.981      6.113
REMARK INTER + INTRA:          -8.185
REMARK INTER:                  -7.822
REMARK INTRA:                  -0.363
REMARK UNBOUND:                -0.316
REMARK SMILES Nc1ccnc2c1ncn2C1CC(O)C(CO)O1
REMARK SMILES IDX 11 1 12 2 13 3 15 4 18 5 10 6 2 7 3 8 7 9 4 10 8 11 6 12
REMARK SMILES IDX 5 13 9 14 1 15 14 18 16 20 17 21
REMARK H PARENT 1 16 1 17 14 19 17 22
ROOT
ATOM      1  C   UNL     1      51.245  53.230  18.859  1.00  0.00    +0.225 C 
ATOM      2  C   UNL     1      50.308  52.481  17.912  1.00  0.00    +0.090 C 
ATOM      3  C   UNL     1      50.759  51.047  18.075  1.00  0.00    +0.150 C 
ATOM      4  C   UNL     1      51.163  51.007  19.542  1.00  0.00    +0.175 C 
ATOM      5  O   UNL     1      51.833  52.271  19.769  1.00  0.00    -0.350 OA
ENDROOT
BRANCH   1   6
ATOM      6  N   UNL     1      50.652  54.308  19.619  1.00  0.00    -0.288 N 
ATOM      7  C   UNL     1      50.650  57.239  21.568  1.00  0.00    +0.063 A 
ATOM      8  C   UNL     1      52.021  57.513  21.651  1.00  0.00    +0.048 A 
ATOM      9  C   UNL     1      50.283  56.092  20.833  1.00  0.00    +0.131 A 
ATOM     10  C   UNL     1      52.932  56.663  21.030  1.00  0.00    +0.116 A 
ATOM     11  N   UNL     1      49.050  55.540  20.554  1.00  0.00    -0.233 NA
ATOM     12  C   UNL     1      51.298  55.332  20.258  1.00  0.00    +0.164 A 
ATOM     13  N   UNL     1      52.627  55.551  20.323  1.00  0.00    -0.236 NA
ATOM     14  C   UNL     1      49.308  54.481  19.820  1.00  0.00    +0.204 A 
BRANCH   7  15
ATOM     15  N   UNL     1      49.717  58.092  22.194  1.00  0.00    -0.397 N 
ATOM     16  H   UNL     1      50.187  58.886  22.622  1.00  0.00    +0.156 HD
ATOM     17  H   UNL     1      49.205  57.598  22.920  1.00  0.00    +0.156 HD
ENDBRANCH   7  15
ENDBRANCH   1   6
BRANCH   3  18
ATOM     18  O   UNL     1      51.858  50.804  17.196  1.00  0.00    -0.390 OA
ATOM     19  H   UNL     1      51.582  50.998  16.281  1.00  0.00    +0.211 HD
ENDBRANCH   3  18
BRANCH   4  20
ATOM     20  C   UNL     1      52.097  49.866  19.932  1.00  0.00    +0.190 C 
BRANCH  20  21
ATOM     21  O   UNL     1      53.123  50.361  20.793  1.00  0.00    -0.394 OA
ATOM     22  H   UNL     1      53.403  51.218  20.419  1.00  0.00    +0.210 HD
ENDBRANCH  20  21
ENDBRANCH   4  20
TORSDOF 5
ENDMDL
