MODEL 1
REMARK VINA RESULT:    -6.976      0.000      0.000
REMARK INTER + INTRA:         -11.869
REMARK INTER:                 -10.850
REMARK INTRA:                  -1.019
REMARK UNBOUND:                -1.019
REMARK SMILES CCCCCC[C@H]([C@@H](O)CO)n1cnc2c(N)ncnc21
REMARK SMILES IDX 6 1 5 2 4 3 3 4 2 5 1 6 7 7 8 8 9 9 10 11 11 12 12 14 13 15
REMARK SMILES IDX 21 16 14 17 20 18 15 19 19 20 16 21 18 22 17 23
REMARK H PARENT 9 10 11 13 17 24 17 25
ROOT
ATOM      1  C   UNL     1      50.423  58.289  21.255  1.00  0.00    +0.028 C 
ENDROOT
BRANCH   1   2
ATOM      2  C   UNL     1      49.170  57.543  21.734  1.00  0.00    +0.002 C 
BRANCH   2   3
ATOM      3  C   UNL     1      48.042  57.529  20.700  1.00  0.00    +0.000 C 
BRANCH   3   4
ATOM      4  C   UNL     1      48.248  56.640  19.468  1.00  0.00    -0.000 C 
BRANCH   4   5
ATOM      5  C   UNL     1      48.420  55.148  19.769  1.00  0.00    -0.003 C 
ATOM      6  C   UNL     1      48.635  54.294  18.527  1.00  0.00    +0.004 C 
ENDBRANCH   4   5
ENDBRANCH   3   4
ENDBRANCH   2   3
ENDBRANCH   1   2
BRANCH   1   7
ATOM      7  C   UNL     1      51.727  57.523  21.574  1.00  0.00    +0.121 C 
BRANCH   7   8
ATOM      8  C   UNL     1      52.997  58.404  21.492  1.00  0.00    +0.163 C 
BRANCH   8   9
ATOM      9  O   UNL     1      52.998  59.443  22.487  1.00  0.00    -0.389 OA
ATOM     10  H   UNL     1      52.709  59.066  23.338  1.00  0.00    +0.211 HD
ENDBRANCH   8   9
BRANCH   8  11
ATOM     11  C   UNL     1      54.289  57.588  21.650  1.00  0.00    +0.190 C 
BRANCH  11  12
ATOM     12  O   UNL     1      54.624  57.479  23.032  1.00  0.00    -0.394 OA
ATOM     13  H   UNL     1      55.031  56.600  23.163  1.00  0.00    +0.210 HD
ENDBRANCH  11  12
ENDBRANCH   8  11
ENDBRANCH   7   8
BRANCH   7  14
ATOM     14  N   UNL     1      51.877  56.337  20.733  1.00  0.00    -0.309 N 
ATOM     15  C   UNL     1      52.068  56.305  19.376  1.00  0.00    +0.202 A 
ATOM     16  C   UNL     1      51.852  55.040  21.174  1.00  0.00    +0.165 A 
ATOM     17  N   UNL     1      52.147  55.073  18.917  1.00  0.00    -0.231 NA
ATOM     18  N   UNL     1      51.707  54.602  22.436  1.00  0.00    -0.217 NA
ATOM     19  C   UNL     1      52.007  54.272  20.031  1.00  0.00    +0.150 A 
ATOM     20  C   UNL     1      51.734  53.253  22.479  1.00  0.00    +0.226 A 
ATOM     21  C   UNL     1      52.007  52.878  20.205  1.00  0.00    +0.155 A 
ATOM     22  N   UNL     1      51.880  52.383  21.457  1.00  0.00    -0.217 NA
BRANCH  21  23
ATOM     23  N   UNL     1      52.152  51.981  19.154  1.00  0.00    -0.382 N 
ATOM     24  H   UNL     1      52.213  52.450  18.260  1.00  0.00    +0.158 HD
ATOM     25  H   UNL     1      51.534  51.179  19.225  1.00  0.00    +0.158 HD
ENDBRANCH  21  23
ENDBRANCH   7  14
ENDBRANCH   1   7
TORSDOF 11
ENDMDL
MODEL 2
REMARK VINA RESULT:    -6.868      3.763      6.120
REMARK INTER + INTRA:         -11.701
REMARK INTER:                 -10.964
REMARK INTRA:                  -0.736
REMARK UNBOUND:                -1.019
REMARK SMILES CCCCCC[C@H]([C@@H](O)CO)n1cnc2c(N)ncnc21
REMARK SMILES IDX 6 1 5 2 4 3 3 4 2 5 1 6 7 7 8 8 9 9 10 11 11 12 12 14 13 15
REMARK SMILES IDX 21 16 14 17 20 18 15 19 19 20 16 21 18 22 17 23
REMARK H PARENT 9 10 11 13 17 24 17 25
ROOT
ATOM      1  C   UNL     1      50.001  51.794  19.439  1.00  0.00    +0.028 C 
ENDROOT
BRANCH   1   2
ATOM      2  C   UNL     1      49.933  51.738  17.907  1.00  0.00    +0.002 C 
BRANCH   2   3
ATOM      3  C   UNL     1      49.740  50.321  17.361  1.00  0.00    +0.000 C 
BRANCH   3   4
ATOM      4  C   UNL     1      48.943  49.348  18.237  1.00  0.00    -0.000 C 
BRANCH   4   5
ATOM      5  C   UNL     1      47.426  49.379  18.021  1.00  0.00    -0.003 C 
ATOM      6  C   UNL     1      46.679  48.284  18.769  1.00  0.00    +0.004 C 
ENDBRANCH   4   5
ENDBRANCH   3   4
ENDBRANCH   2   3
ENDBRANCH   1   2
BRANCH   1   7
ATOM      7  C   UNL     1      51.449  51.925  19.964  1.00  0.00    +0.121 C 
BRANCH   7   8
ATOM      8  C   UNL     1      51.959  50.661  20.695  1.00  0.00    +0.163 C 
BRANCH   8   9
ATOM      9  O   UNL     1      50.913  50.004  21.433  1.00  0.00    -0.389 OA
ATOM     10  H   UNL     1      50.092  50.524  21.347  1.00  0.00    +0.211 HD
ENDBRANCH   8   9
BRANCH   8  11
ATOM     11  C   UNL     1      52.583  49.637  19.735  1.00  0.00    +0.190 C 
BRANCH  11  12
ATOM     12  O   UNL     1      53.863  49.238  20.220  1.00  0.00    -0.394 OA
ATOM     13  H   UNL     1      53.833  48.272  20.358  1.00  0.00    +0.210 HD
ENDBRANCH  11  12
ENDBRANCH   8  11
ENDBRANCH   7   8
BRANCH   7  14
ATOM     14  N   UNL     1      51.612  53.104  20.813  1.00  0.00    -0.309 N 
ATOM     15  C   UNL     1      51.610  53.141  22.183  1.00  0.00    +0.202 A 
ATOM     16  C   UNL     1      51.798  54.386  20.368  1.00  0.00    +0.165 A 
ATOM     17  N   UNL     1      51.763  54.365  22.644  1.00  0.00    -0.231 NA
ATOM     18  N   UNL     1      51.884  54.812  19.097  1.00  0.00    -0.217 NA
ATOM     19  C   UNL     1      51.875  55.155  21.518  1.00  0.00    +0.150 A 
ATOM     20  C   UNL     1      52.070  56.148  19.053  1.00  0.00    +0.226 A 
ATOM     21  C   UNL     1      52.058  56.536  21.341  1.00  0.00    +0.155 A 
ATOM     22  N   UNL     1      52.168  57.017  20.083  1.00  0.00    -0.217 NA
BRANCH  21  23
ATOM     23  N   UNL     1      52.153  57.432  22.399  1.00  0.00    -0.382 N 
ATOM     24  H   UNL     1      52.206  56.961  23.292  1.00  0.00    +0.158 HD
ATOM     25  H   UNL     1      51.516  58.217  22.316  1.00  0.00    +0.158 HD
ENDBRANCH  21  23
ENDBRANCH   7  14
ENDBRANCH   1   7
TORSDOF 11
ENDMDL
MODEL 3
REMARK VINA RESULT:    -6.828      2.022      3.448
REMARK INTER + INTRA:         -11.639
REMARK INTER:                 -11.220
REMARK INTRA:                  -0.419
REMARK UNBOUND:                -1.019
REMARK SMILES CCCCCC[C@H]([C@@H](O)CO)n1cnc2c(N)ncnc21
REMARK SMILES IDX 6 1 5 2 4 3 3 4 2 5 1 6 7 7 8 8 9 9 10 11 11 12 12 14 13 15
REMARK SMILES IDX 21 16 14 17 20 18 15 19 19 20 16 21 18 22 17 23
REMARK H PARENT 9 10 11 13 17 24 17 25
ROOT
ATOM      1  C   UNL     1      49.954  55.143  20.448  1.00  0.00    +0.028 C 
ENDROOT
BRANCH   1   2
ATOM      2  C   UNL     1      49.403  56.479  20.964  1.00  0.00    +0.002 C 
BRANCH   2   3
ATOM      3  C   UNL     1      48.300  57.062  20.078  1.00  0.00    +0.000 C 
BRANCH   3   4
ATOM      4  C   UNL     1      47.511  58.245  20.649  1.00  0.00    -0.000 C 
BRANCH   4   5
ATOM      5  C   UNL     1      47.228  59.374  19.653  1.00  0.00    -0.003 C 
ATOM      6  C   UNL     1      47.561  59.016  18.211  1.00  0.00    +0.004 C 
ENDBRANCH   4   5
ENDBRANCH   3   4
ENDBRANCH   2   3
ENDBRANCH   1   2
BRANCH   1   7
ATOM      7  C   UNL     1      51.401  54.875  20.921  1.00  0.00    +0.121 C 
BRANCH   7   8
ATOM      8  C   UNL     1      52.469  55.644  20.110  1.00  0.00    +0.163 C 
BRANCH   8   9
ATOM      9  O   UNL     1      51.985  56.034  18.812  1.00  0.00    -0.389 OA
ATOM     10  H   UNL     1      52.739  56.081  18.195  1.00  0.00    +0.211 HD
ENDBRANCH   8   9
BRANCH   8  11
ATOM     11  C   UNL     1      52.964  56.905  20.835  1.00  0.00    +0.190 C 
BRANCH  11  12
ATOM     12  O   UNL     1      52.936  56.691  22.245  1.00  0.00    -0.394 OA
ATOM     13  H   UNL     1      53.577  55.982  22.444  1.00  0.00    +0.210 HD
ENDBRANCH  11  12
ENDBRANCH   8  11
ENDBRANCH   7   8
BRANCH   7  14
ATOM     14  N   UNL     1      51.708  53.445  20.939  1.00  0.00    -0.309 N 
ATOM     15  C   UNL     1      51.729  52.619  22.032  1.00  0.00    +0.202 A 
ATOM     16  C   UNL     1      52.027  52.686  19.844  1.00  0.00    +0.165 A 
ATOM     17  N   UNL     1      52.059  51.385  21.713  1.00  0.00    -0.231 NA
ATOM     18  N   UNL     1      52.106  53.080  18.563  1.00  0.00    -0.217 NA
ATOM     19  C   UNL     1      52.255  51.415  20.347  1.00  0.00    +0.150 A 
ATOM     20  C   UNL     1      52.448  52.047  17.766  1.00  0.00    +0.226 A 
ATOM     21  C   UNL     1      52.616  50.425  19.418  1.00  0.00    +0.155 A 
ATOM     22  N   UNL     1      52.695  50.764  18.111  1.00  0.00    -0.217 NA
BRANCH  21  23
ATOM     23  N   UNL     1      52.877  49.108  19.773  1.00  0.00    -0.382 N 
ATOM     24  H   UNL     1      53.072  48.529  18.967  1.00  0.00    +0.158 HD
ATOM     25  H   UNL     1      52.235  48.747  20.470  1.00  0.00    +0.158 HD
ENDBRANCH  21  23
ENDBRANCH   7  14
ENDBRANCH   1   7
TORSDOF 11
ENDMDL
MODEL 4
REMARK VINA RESULT:    -6.423      4.913      7.241
REMARK INTER + INTRA:         -11.009
REMARK INTER:                  -9.738
REMARK INTRA:                  -1.271
REMARK UNBOUND:                -1.019
REMARK SMILES CCCCCC[C@H]([C@@H](O)CO)n1cnc2c(N)ncnc21
REMARK SMILES IDX 6 1 5 2 4 3 3 4 2 5 1 6 7 7 8 8 9 9 10 11 11 12 12 14 13 15
REMARK SMILES IDX 21 16 14 17 20 18 15 19 19 20 16 21 18 22 17 23
REMARK H PARENT 9 10 11 13 17 24 17 25
ROOT
ATOM      1  C   UNL     1      47.509  50.494  16.826  1.00  0.00    +0.028 C 
ENDROOT
BRANCH   1   2
ATOM      2  C   UNL     1      47.082  51.907  17.248  1.00  0.00    +0.002 C 
BRANCH   2   3
ATOM      3  C   UNL     1      47.772  53.013  16.445  1.00  0.00    +0.000 C 
BRANCH   3   4
ATOM      4  C   UNL     1      48.560  54.056  17.245  1.00  0.00    -0.000 C 
BRANCH   4   5
ATOM      5  C   UNL     1      48.460  53.913  18.768  1.00  0.00    -0.003 C 
ATOM      6  C   UNL     1      48.562  55.236  19.515  1.00  0.00    +0.004 C 
ENDBRANCH   4   5
ENDBRANCH   3   4
ENDBRANCH   2   3
ENDBRANCH   1   2
BRANCH   1   7
ATOM      7  C   UNL     1      49.042  50.354  16.687  1.00  0.00    +0.121 C 
BRANCH   7   8
ATOM      8  C   UNL     1      49.475  49.217  15.733  1.00  0.00    +0.163 C 
BRANCH   8   9
ATOM      9  O   UNL     1      48.348  48.572  15.114  1.00  0.00    -0.389 OA
ATOM     10  H   UNL     1      48.309  48.837  14.176  1.00  0.00    +0.211 HD
ENDBRANCH   8   9
BRANCH   8  11
ATOM     11  C   UNL     1      50.417  49.707  14.623  1.00  0.00    +0.190 C 
BRANCH  11  12
ATOM     12  O   UNL     1      51.658  50.120  15.191  1.00  0.00    -0.394 OA
ATOM     13  H   UNL     1      51.472  50.431  16.098  1.00  0.00    +0.210 HD
ENDBRANCH  11  12
ENDBRANCH   8  11
ENDBRANCH   7   8
BRANCH   7  14
ATOM     14  N   UNL     1      49.691  50.201  17.989  1.00  0.00    -0.309 N 
ATOM     15  C   UNL     1      49.385  49.285  18.961  1.00  0.00    +0.202 A 
ATOM     16  C   UNL     1      50.730  50.962  18.454  1.00  0.00    +0.165 A 
ATOM     17  N   UNL     1      50.147  49.421  20.026  1.00  0.00    -0.231 NA
ATOM     18  N   UNL     1      51.363  51.966  17.825  1.00  0.00    -0.217 NA
ATOM     19  C   UNL     1      50.989  50.472  19.725  1.00  0.00    +0.150 A 
ATOM     20  C   UNL     1      52.340  52.477  18.604  1.00  0.00    +0.226 A 
ATOM     21  C   UNL     1      52.024  51.095  20.441  1.00  0.00    +0.155 A 
ATOM     22  N   UNL     1      52.705  52.101  19.849  1.00  0.00    -0.217 NA
BRANCH  21  23
ATOM     23  N   UNL     1      52.397  50.714  21.725  1.00  0.00    -0.382 N 
ATOM     24  H   UNL     1      53.217  50.123  21.722  1.00  0.00    +0.158 HD
ATOM     25  H   UNL     1      51.612  50.431  22.301  1.00  0.00    +0.158 HD
ENDBRANCH  21  23
ENDBRANCH   7  14
ENDBRANCH   1   7
TORSDOF 11
ENDMDL
MODEL 5
REMARK VINA RESULT:    -6.362      1.714      2.849
REMARK INTER + INTRA:         -10.914
REMARK INTER:                 -10.024
REMARK INTRA:                  -0.889
REMARK UNBOUND:                -1.019
REMARK SMILES CCCCCC[C@H]([C@@H](O)CO)n1cnc2c(N)ncnc21
REMARK SMILES IDX 6 1 5 2 4 3 3 4 2 5 1 6 7 7 8 8 9 9 10 11 11 12 12 14 13 15
REMARK SMILES IDX 21 16 14 17 20 18 15 19 19 20 16 21 18 22 17 23
REMARK H PARENT 9 10 11 13 17 24 17 25
ROOT
ATOM      1  C   UNL     1      50.316  55.630  19.268  1.00  0.00    +0.028 C 
ENDROOT
BRANCH   1   2
ATOM      2  C   UNL     1      48.951  54.929  19.288  1.00  0.00    +0.002 C 
BRANCH   2   3
ATOM      3  C   UNL     1      47.837  55.791  19.885  1.00  0.00    +0.000 C 
BRANCH   3   4
ATOM      4  C   UNL     1      47.896  57.294  19.592  1.00  0.00    -0.000 C 
BRANCH   4   5
ATOM      5  C   UNL     1      47.846  58.196  20.830  1.00  0.00    -0.003 C 
ATOM      6  C   UNL     1      49.027  58.011  21.771  1.00  0.00    +0.004 C 
ENDBRANCH   4   5
ENDBRANCH   3   4
ENDBRANCH   2   3
ENDBRANCH   1   2
BRANCH   1   7
ATOM      7  C   UNL     1      51.306  55.031  20.293  1.00  0.00    +0.121 C 
BRANCH   7   8
ATOM      8  C   UNL     1      52.378  56.035  20.778  1.00  0.00    +0.163 C 
BRANCH   8   9
ATOM      9  O   UNL     1      52.299  57.289  20.077  1.00  0.00    -0.389 OA
ATOM     10  H   UNL     1      53.201  57.573  19.836  1.00  0.00    +0.211 HD
ENDBRANCH   8   9
BRANCH   8  11
ATOM     11  C   UNL     1      52.278  56.320  22.284  1.00  0.00    +0.190 C 
BRANCH  11  12
ATOM     12  O   UNL     1      53.380  57.126  22.696  1.00  0.00    -0.394 OA
ATOM     13  H   UNL     1      53.325  57.967  22.202  1.00  0.00    +0.210 HD
ENDBRANCH  11  12
ENDBRANCH   8  11
ENDBRANCH   7   8
BRANCH   7  14
ATOM     14  N   UNL     1      51.940  53.815  19.785  1.00  0.00    -0.309 N 
ATOM     15  C   UNL     1      52.858  53.726  18.770  1.00  0.00    +0.202 A 
ATOM     16  C   UNL     1      51.719  52.547  20.251  1.00  0.00    +0.165 A 
ATOM     17  N   UNL     1      53.223  52.481  18.543  1.00  0.00    -0.231 NA
ATOM     18  N   UNL     1      50.909  52.167  21.253  1.00  0.00    -0.217 NA
ATOM     19  C   UNL     1      52.512  51.732  19.459  1.00  0.00    +0.150 A 
ATOM     20  C   UNL     1      50.954  50.829  21.423  1.00  0.00    +0.226 A 
ATOM     21  C   UNL     1      52.464  50.354  19.726  1.00  0.00    +0.155 A 
ATOM     22  N   UNL     1      51.677  49.919  20.736  1.00  0.00    -0.217 NA
BRANCH  21  23
ATOM     23  N   UNL     1      53.202  49.415  19.015  1.00  0.00    -0.382 N 
ATOM     24  H   UNL     1      53.935  49.845  18.467  1.00  0.00    +0.158 HD
ATOM     25  H   UNL     1      52.626  48.711  18.566  1.00  0.00    +0.158 HD
ENDBRANCH  21  23
ENDBRANCH   7  14
ENDBRANCH   1   7
TORSDOF 11
ENDMDL
