MODEL 1
REMARK VINA RESULT:    -6.763      0.000      0.000
REMARK INTER + INTRA:         -10.763
REMARK INTER:                  -9.926
REMARK INTRA:                  -0.837
REMARK UNBOUND:                -0.837
REMARK SMILES CCCCCC[C@H](CO)n1cnc2c(N)ncnc21
REMARK SMILES IDX 5 1 4 2 3 3 2 4 1 5 6 6 7 7 8 8 9 9 10 11 11 12 19 13 12 14
REMARK SMILES IDX 18 15 13 16 17 17 14 18 16 19 15 20
REMARK H PARENT 9 10 15 21 15 22
ROOT
ATOM      1  C   UNL     1      49.632  57.294  21.813  1.00  0.00    +0.002 C 
ENDROOT
BRANCH   1   2
ATOM      2  C   UNL     1      48.488  58.091  21.183  1.00  0.00    +0.000 C 
BRANCH   2   3
ATOM      3  C   UNL     1      47.608  57.194  20.307  1.00  0.00    -0.000 C 
BRANCH   3   4
ATOM      4  C   UNL     1      48.320  55.927  19.829  1.00  0.00    -0.003 C 
ATOM      5  C   UNL     1      48.779  55.997  18.381  1.00  0.00    +0.004 C 
ENDBRANCH   3   4
ENDBRANCH   2   3
ENDBRANCH   1   2
BRANCH   1   6
ATOM      6  C   UNL     1      51.016  57.909  21.569  1.00  0.00    +0.028 C 
BRANCH   6   7
ATOM      7  C   UNL     1      52.206  56.932  21.694  1.00  0.00    +0.116 C 
BRANCH   7   8
ATOM      8  C   UNL     1      53.586  57.604  21.604  1.00  0.00    +0.181 C 
BRANCH   8   9
ATOM      9  O   UNL     1      54.299  57.517  22.835  1.00  0.00    -0.394 OA
ATOM     10  H   UNL     1      54.675  58.396  23.019  1.00  0.00    +0.210 HD
ENDBRANCH   8   9
ENDBRANCH   7   8
BRANCH   7  11
ATOM     11  N   UNL     1      52.118  55.841  20.722  1.00  0.00    -0.310 N 
ATOM     12  C   UNL     1      52.273  55.928  19.363  1.00  0.00    +0.202 A 
ATOM     13  C   UNL     1      51.918  54.521  21.029  1.00  0.00    +0.165 A 
ATOM     14  N   UNL     1      52.173  54.752  18.778  1.00  0.00    -0.231 NA
ATOM     15  N   UNL     1      51.753  53.974  22.244  1.00  0.00    -0.217 NA
ATOM     16  C   UNL     1      51.937  53.864  19.809  1.00  0.00    +0.150 A 
ATOM     17  C   UNL     1      51.586  52.639  22.149  1.00  0.00    +0.226 A 
ATOM     18  C   UNL     1      51.745  52.473  19.839  1.00  0.00    +0.155 A 
ATOM     19  N   UNL     1      51.582  51.869  21.039  1.00  0.00    -0.217 NA
BRANCH  18  20
ATOM     20  N   UNL     1      51.738  51.681  18.698  1.00  0.00    -0.382 N 
ATOM     21  H   UNL     1      52.046  50.737  18.885  1.00  0.00    +0.158 HD
ATOM     22  H   UNL     1      52.107  52.149  17.878  1.00  0.00    +0.158 HD
ENDBRANCH  18  20
ENDBRANCH   7  11
ENDBRANCH   6   7
ENDBRANCH   1   6
TORSDOF 9
ENDMDL
MODEL 2
REMARK VINA RESULT:    -6.622      4.003      6.352
REMARK INTER + INTRA:         -10.556
REMARK INTER:                 -10.179
REMARK INTRA:                  -0.377
REMARK UNBOUND:                -0.837
REMARK SMILES CCCCCC[C@H](CO)n1cnc2c(N)ncnc21
REMARK SMILES IDX 5 1 4 2 3 3 2 4 1 5 6 6 7 7 8 8 9 9 10 11 11 12 19 13 12 14
REMARK SMILES IDX 18 15 13 16 17 17 14 18 16 19 15 20
REMARK H PARENT 9 10 15 21 15 22
ROOT
ATOM      1  C   UNL     1      49.431  49.784  18.757  1.00  0.00    +0.002 C 
ENDROOT
BRANCH   1   2
ATOM      2  C   UNL     1      48.050  49.645  18.112  1.00  0.00    +0.000 C 
BRANCH   2   3
ATOM      3  C   UNL     1      47.249  48.513  18.762  1.00  0.00    -0.000 C 
BRANCH   3   4
ATOM      4  C   UNL     1      45.851  48.339  18.165  1.00  0.00    -0.003 C 
ATOM      5  C   UNL     1      44.944  47.441  18.992  1.00  0.00    +0.004 C 
ENDBRANCH   3   4
ENDBRANCH   2   3
ENDBRANCH   1   2
BRANCH   1   6
ATOM      6  C   UNL     1      50.012  51.200  18.667  1.00  0.00    +0.028 C 
BRANCH   6   7
ATOM      7  C   UNL     1      51.448  51.363  19.211  1.00  0.00    +0.116 C 
BRANCH   7   8
ATOM      8  C   UNL     1      52.098  50.051  19.678  1.00  0.00    +0.181 C 
BRANCH   8   9
ATOM      9  O   UNL     1      53.151  49.642  18.809  1.00  0.00    -0.394 OA
ATOM     10  H   UNL     1      53.982  49.680  19.315  1.00  0.00    +0.210 HD
ENDBRANCH   8   9
ENDBRANCH   7   8
BRANCH   7  11
ATOM     11  N   UNL     1      51.514  52.360  20.281  1.00  0.00    -0.310 N 
ATOM     12  C   UNL     1      51.464  52.131  21.631  1.00  0.00    +0.202 A 
ATOM     13  C   UNL     1      51.696  53.705  20.100  1.00  0.00    +0.165 A 
ATOM     14  N   UNL     1      51.590  53.243  22.326  1.00  0.00    -0.231 NA
ATOM     15  N   UNL     1      51.834  54.369  18.940  1.00  0.00    -0.217 NA
ATOM     16  C   UNL     1      51.722  54.238  21.379  1.00  0.00    +0.150 A 
ATOM     17  C   UNL     1      51.999  55.689  19.162  1.00  0.00    +0.226 A 
ATOM     18  C   UNL     1      51.894  55.628  21.479  1.00  0.00    +0.155 A 
ATOM     19  N   UNL     1      52.046  56.344  20.342  1.00  0.00    -0.217 NA
BRANCH  18  20
ATOM     20  N   UNL     1      51.940  56.303  22.692  1.00  0.00    -0.382 N 
ATOM     21  H   UNL     1      51.305  55.910  23.374  1.00  0.00    +0.158 HD
ATOM     22  H   UNL     1      51.967  57.312  22.594  1.00  0.00    +0.158 HD
ENDBRANCH  18  20
ENDBRANCH   7  11
ENDBRANCH   6   7
ENDBRANCH   1   6
TORSDOF 9
ENDMDL
MODEL 3
REMARK VINA RESULT:    -5.975      3.988      6.301
REMARK INTER + INTRA:          -9.607
REMARK INTER:                  -8.895
REMARK INTRA:                  -0.712
REMARK UNBOUND:                -0.837
REMARK SMILES CCCCCC[C@H](CO)n1cnc2c(N)ncnc21
REMARK SMILES IDX 5 1 4 2 3 3 2 4 1 5 6 6 7 7 8 8 9 9 10 11 11 12 19 13 12 14
REMARK SMILES IDX 18 15 13 16 17 17 14 18 16 19 15 20
REMARK H PARENT 9 10 15 21 15 22
ROOT
ATOM      1  C   UNL     1      48.775  48.735  18.187  1.00  0.00    +0.002 C 
ENDROOT
BRANCH   1   2
ATOM      2  C   UNL     1      47.291  48.889  18.529  1.00  0.00    +0.000 C 
BRANCH   2   3
ATOM      3  C   UNL     1      46.549  49.658  17.432  1.00  0.00    -0.000 C 
BRANCH   3   4
ATOM      4  C   UNL     1      47.471  50.518  16.565  1.00  0.00    -0.003 C 
ATOM      5  C   UNL     1      47.447  51.994  16.932  1.00  0.00    +0.004 C 
ENDBRANCH   3   4
ENDBRANCH   2   3
ENDBRANCH   1   2
BRANCH   1   6
ATOM      6  C   UNL     1      49.712  49.386  19.212  1.00  0.00    +0.028 C 
BRANCH   6   7
ATOM      7  C   UNL     1      50.346  50.724  18.772  1.00  0.00    +0.116 C 
BRANCH   7   8
ATOM      8  C   UNL     1      51.527  50.573  17.800  1.00  0.00    +0.181 C 
BRANCH   8   9
ATOM      9  O   UNL     1      51.108  50.659  16.440  1.00  0.00    -0.394 OA
ATOM     10  H   UNL     1      50.535  51.443  16.358  1.00  0.00    +0.210 HD
ENDBRANCH   8   9
ENDBRANCH   7   8
BRANCH   7  11
ATOM     11  N   UNL     1      50.748  51.538  19.920  1.00  0.00    -0.310 N 
ATOM     12  C   UNL     1      51.325  51.102  21.085  1.00  0.00    +0.202 A 
ATOM     13  C   UNL     1      50.660  52.903  19.993  1.00  0.00    +0.165 A 
ATOM     14  N   UNL     1      51.600  52.097  21.903  1.00  0.00    -0.231 NA
ATOM     15  N   UNL     1      50.190  53.749  19.061  1.00  0.00    -0.217 NA
ATOM     16  C   UNL     1      51.177  53.229  21.237  1.00  0.00    +0.150 A 
ATOM     17  C   UNL     1      50.267  55.025  19.492  1.00  0.00    +0.226 A 
ATOM     18  C   UNL     1      51.197  54.593  21.574  1.00  0.00    +0.155 A 
ATOM     19  N   UNL     1      50.743  55.489  20.668  1.00  0.00    -0.217 NA
BRANCH  18  20
ATOM     20  N   UNL     1      51.684  55.070  22.783  1.00  0.00    -0.382 N 
ATOM     21  H   UNL     1      51.369  56.011  22.980  1.00  0.00    +0.158 HD
ATOM     22  H   UNL     1      52.662  54.853  22.941  1.00  0.00    +0.158 HD
ENDBRANCH  18  20
ENDBRANCH   7  11
ENDBRANCH   6   7
ENDBRANCH   1   6
TORSDOF 9
ENDMDL
MODEL 4
REMARK VINA RESULT:    -5.878      2.542      3.907
REMARK INTER + INTRA:          -9.464
REMARK INTER:                  -8.852
REMARK INTRA:                  -0.612
REMARK UNBOUND:                -0.837
REMARK SMILES CCCCCC[C@H](CO)n1cnc2c(N)ncnc21
REMARK SMILES IDX 5 1 4 2 3 3 2 4 1 5 6 6 7 7 8 8 9 9 10 11 11 12 19 13 12 14
REMARK SMILES IDX 18 15 13 16 17 17 14 18 16 19 15 20
REMARK H PARENT 9 10 15 21 15 22
ROOT
ATOM      1  C   UNL     1      51.438  56.087  21.444  1.00  0.00    +0.002 C 
ENDROOT
BRANCH   1   2
ATOM      2  C   UNL     1      50.711  57.291  20.840  1.00  0.00    +0.000 C 
BRANCH   2   3
ATOM      3  C   UNL     1      49.504  57.692  21.693  1.00  0.00    -0.000 C 
BRANCH   3   4
ATOM      4  C   UNL     1      48.167  57.525  20.969  1.00  0.00    -0.003 C 
ATOM      5  C   UNL     1      48.218  56.530  19.820  1.00  0.00    +0.004 C 
ENDBRANCH   3   4
ENDBRANCH   2   3
ENDBRANCH   1   2
BRANCH   1   6
ATOM      6  C   UNL     1      51.737  54.977  20.429  1.00  0.00    +0.028 C 
BRANCH   6   7
ATOM      7  C   UNL     1      51.097  53.606  20.741  1.00  0.00    +0.116 C 
BRANCH   7   8
ATOM      8  C   UNL     1      51.588  52.962  22.047  1.00  0.00    +0.181 C 
BRANCH   8   9
ATOM      9  O   UNL     1      50.680  51.973  22.524  1.00  0.00    -0.394 OA
ATOM     10  H   UNL     1      49.890  52.434  22.857  1.00  0.00    +0.210 HD
ENDBRANCH   8   9
ENDBRANCH   7   8
BRANCH   7  11
ATOM     11  N   UNL     1      51.260  52.666  19.631  1.00  0.00    -0.310 N 
ATOM     12  C   UNL     1      52.307  51.808  19.418  1.00  0.00    +0.202 A 
ATOM     13  C   UNL     1      50.344  52.449  18.635  1.00  0.00    +0.165 A 
ATOM     14  N   UNL     1      52.128  51.065  18.345  1.00  0.00    -0.231 NA
ATOM     15  N   UNL     1      49.152  53.046  18.469  1.00  0.00    -0.217 NA
ATOM     16  C   UNL     1      50.909  51.467  17.838  1.00  0.00    +0.150 A 
ATOM     17  C   UNL     1      48.527  52.568  17.373  1.00  0.00    +0.226 A 
ATOM     18  C   UNL     1      50.163  51.057  16.720  1.00  0.00    +0.155 A 
ATOM     19  N   UNL     1      48.951  51.619  16.510  1.00  0.00    -0.217 NA
BRANCH  18  20
ATOM     20  N   UNL     1      50.599  50.083  15.831  1.00  0.00    -0.382 N 
ATOM     21  H   UNL     1      51.560  49.816  15.995  1.00  0.00    +0.158 HD
ATOM     22  H   UNL     1      50.308  50.249  14.874  1.00  0.00    +0.158 HD
ENDBRANCH  18  20
ENDBRANCH   7  11
ENDBRANCH   6   7
ENDBRANCH   1   6
TORSDOF 9
ENDMDL
MODEL 5
REMARK VINA RESULT:    -5.784      4.973      7.159
REMARK INTER + INTRA:          -9.326
REMARK INTER:                  -8.487
REMARK INTRA:                  -0.839
REMARK UNBOUND:                -0.837
REMARK SMILES CCCCCC[C@H](CO)n1cnc2c(N)ncnc21
REMARK SMILES IDX 5 1 4 2 3 3 2 4 1 5 6 6 7 7 8 8 9 9 10 11 11 12 19 13 12 14
REMARK SMILES IDX 18 15 13 16 17 17 14 18 16 19 15 20
REMARK H PARENT 9 10 15 21 15 22
ROOT
ATOM      1  C   UNL     1      48.590  48.451  15.937  1.00  0.00    +0.002 C 
ENDROOT
BRANCH   1   2
ATOM      2  C   UNL     1      47.119  48.039  15.834  1.00  0.00    +0.000 C 
BRANCH   2   3
ATOM      3  C   UNL     1      46.202  49.117  16.420  1.00  0.00    -0.000 C 
BRANCH   3   4
ATOM      4  C   UNL     1      45.290  48.598  17.533  1.00  0.00    -0.003 C 
ATOM      5  C   UNL     1      46.045  47.960  18.689  1.00  0.00    +0.004 C 
ENDBRANCH   3   4
ENDBRANCH   2   3
ENDBRANCH   1   2
BRANCH   1   6
ATOM      6  C   UNL     1      48.790  49.939  16.254  1.00  0.00    +0.028 C 
BRANCH   6   7
ATOM      7  C   UNL     1      49.754  50.243  17.422  1.00  0.00    +0.116 C 
BRANCH   7   8
ATOM      8  C   UNL     1      49.498  49.404  18.685  1.00  0.00    +0.181 C 
BRANCH   8   9
ATOM      9  O   UNL     1      50.711  48.909  19.246  1.00  0.00    -0.394 OA
ATOM     10  H   UNL     1      51.415  49.548  19.036  1.00  0.00    +0.210 HD
ENDBRANCH   8   9
ENDBRANCH   7   8
BRANCH   7  11
ATOM     11  N   UNL     1      49.762  51.666  17.763  1.00  0.00    -0.310 N 
ATOM     12  C   UNL     1      48.724  52.553  17.644  1.00  0.00    +0.202 A 
ATOM     13  C   UNL     1      50.816  52.341  18.320  1.00  0.00    +0.165 A 
ATOM     14  N   UNL     1      49.049  53.755  18.076  1.00  0.00    -0.231 NA
ATOM     15  N   UNL     1      52.025  51.855  18.646  1.00  0.00    -0.217 NA
ATOM     16  C   UNL     1      50.360  53.638  18.490  1.00  0.00    +0.150 A 
ATOM     17  C   UNL     1      52.802  52.821  19.178  1.00  0.00    +0.226 A 
ATOM     18  C   UNL     1      51.265  54.556  19.048  1.00  0.00    +0.155 A 
ATOM     19  N   UNL     1      52.495  54.118  19.403  1.00  0.00    -0.217 NA
BRANCH  18  20
ATOM     20  N   UNL     1      50.952  55.889  19.278  1.00  0.00    -0.382 N 
ATOM     21  H   UNL     1      50.176  56.204  18.712  1.00  0.00    +0.158 HD
ATOM     22  H   UNL     1      51.765  56.491  19.347  1.00  0.00    +0.158 HD
ENDBRANCH  18  20
ENDBRANCH   7  11
ENDBRANCH   6   7
ENDBRANCH   1   6
TORSDOF 9
ENDMDL
