MODEL 1
REMARK VINA RESULT:    -6.251      0.000      0.000
REMARK INTER + INTRA:          -8.581
REMARK INTER:                  -8.626
REMARK INTRA:                   0.045
REMARK UNBOUND:                 0.045
REMARK SMILES OCC1OC(n2cnc3c2NC=NC[C@H]3O)CC1O
REMARK SMILES IDX 3 1 4 2 5 3 17 4 18 5 2 6 1 7 19 9 6 11 7 12 10 13 8 14 9 15
REMARK SMILES IDX 11 16 12 17 13 18 14 20 15 22 16 24
REMARK H PARENT 1 8 19 10 11 19 16 25
REMARK Flexibility Score:   20.900
ROOT
ATOM      1  C   UNL     1      52.024  57.098  22.139  1.00  0.00    +0.175 C 
ATOM      2  O   UNL     1      52.192  55.679  21.911  1.00  0.00    -0.350 OA
ATOM      3  C   UNL     1      51.167  55.239  20.999  1.00  0.00    +0.225 C 
ATOM      4  C   UNL     1      50.655  56.469  20.273  1.00  0.00    +0.090 C 
ATOM      5  C   UNL     1      50.787  57.526  21.344  1.00  0.00    +0.150 C 
ENDROOT
BRANCH   1   6
ATOM      6  C   UNL     1      53.306  57.829  21.728  1.00  0.00    +0.190 C 
BRANCH   6   7
ATOM      7  O   UNL     1      53.505  59.012  22.503  1.00  0.00    -0.394 OA
ATOM      8  H   UNL     1      54.119  59.574  21.990  1.00  0.00    +0.210 HD
ENDBRANCH   6   7
ENDBRANCH   1   6
BRANCH   5   9
ATOM      9  O   UNL     1      49.611  57.492  22.162  1.00  0.00    -0.390 OA
ATOM     10  H   UNL     1      48.962  56.876  21.782  1.00  0.00    +0.211 HD
ENDBRANCH   5   9
BRANCH   3  11
ATOM     11  N   UNL     1      51.666  54.187  20.137  1.00  0.00    -0.290 N 
ATOM     12  C   UNL     1      52.380  54.428  18.986  1.00  0.00    +0.203 A 
ATOM     13  C   UNL     1      51.581  52.826  20.277  1.00  0.00    +0.139 A 
ATOM     14  N   UNL     1      52.759  53.318  18.395  1.00  0.00    -0.237 NA
ATOM     15  C   UNL     1      52.261  52.311  19.195  1.00  0.00    +0.113 A 
BRANCH  13  16
ATOM     16  N   UNL     1      50.968  52.184  21.295  1.00  0.00    -0.331 N 
ATOM     17  C   UNL     1      50.886  50.819  21.459  1.00  0.00    +0.192 C 
ATOM     18  N   UNL     1      51.028  49.814  20.676  1.00  0.00    -0.272 NA
ATOM     19  H   UNL     1      50.626  52.725  22.096  1.00  0.00    +0.169 HD
BRANCH  18  20
ATOM     20  C   UNL     1      51.230  50.033  19.231  1.00  0.00    +0.182 CG0
ATOM     21  G   UNL     1      52.463  50.874  18.865  1.00  0.00    +0.000 G0
ENDBRANCH  18  20
ENDBRANCH  13  16
BRANCH  15  22
ATOM     22  C   UNL     1      52.472  50.870  18.869  1.00  0.00    +0.188 CG0
ATOM     23  G   UNL     1      51.236  50.031  19.231  1.00  0.00    +0.000 G0
BRANCH  22  24
ATOM     24  O   UNL     1      52.756  50.711  17.469  1.00  0.00    -0.385 OA
ATOM     25  H   UNL     1      52.162  49.986  17.185  1.00  0.00    +0.211 HD
ENDBRANCH  22  24
ENDBRANCH  15  22
ENDBRANCH   3  11
TORSDOF 5
ENDMDL
MODEL 2
REMARK VINA RESULT:    -6.195      2.992      6.119
REMARK INTER + INTRA:          -8.504
REMARK INTER:                  -8.261
REMARK INTRA:                  -0.243
REMARK UNBOUND:                 0.045
REMARK SMILES OCC1OC(n2cnc3c2NC=NC[C@H]3O)CC1O
REMARK SMILES IDX 3 1 4 2 5 3 17 4 18 5 2 6 1 7 19 9 6 11 7 12 10 13 8 14 9 15
REMARK SMILES IDX 11 16 12 17 13 18 14 20 15 22 16 24
REMARK H PARENT 1 8 19 10 11 19 16 25
REMARK Flexibility Score:   20.900
ROOT
ATOM      1  C   UNL     1      52.077  50.902  18.856  1.00  0.00    +0.175 C 
ATOM      2  O   UNL     1      51.990  52.342  18.734  1.00  0.00    -0.350 OA
ATOM      3  C   UNL     1      50.637  52.688  18.381  1.00  0.00    +0.225 C 
ATOM      4  C   UNL     1      49.759  51.511  18.761  1.00  0.00    +0.090 C 
ATOM      5  C   UNL     1      50.691  50.349  18.510  1.00  0.00    +0.150 C 
ENDROOT
BRANCH   1   6
ATOM      6  C   UNL     1      52.550  50.546  20.270  1.00  0.00    +0.190 C 
BRANCH   6   7
ATOM      7  O   UNL     1      53.486  49.467  20.251  1.00  0.00    -0.394 OA
ATOM      8  H   UNL     1      53.576  49.201  19.314  1.00  0.00    +0.210 HD
ENDBRANCH   6   7
ENDBRANCH   1   6
BRANCH   5   9
ATOM      9  O   UNL     1      50.610  49.992  17.125  1.00  0.00    -0.390 OA
ATOM     10  H   UNL     1      49.708  50.151  16.796  1.00  0.00    +0.211 HD
ENDBRANCH   5   9
BRANCH   3  11
ATOM     11  N   UNL     1      50.258  53.950  18.986  1.00  0.00    -0.290 N 
ATOM     12  C   UNL     1      49.443  54.869  18.368  1.00  0.00    +0.203 A 
ATOM     13  C   UNL     1      50.568  54.456  20.222  1.00  0.00    +0.139 A 
ATOM     14  N   UNL     1      49.209  55.915  19.128  1.00  0.00    -0.237 NA
ATOM     15  C   UNL     1      49.910  55.666  20.288  1.00  0.00    +0.113 A 
BRANCH  13  16
ATOM     16  N   UNL     1      51.338  53.842  21.146  1.00  0.00    -0.331 N 
ATOM     17  C   UNL     1      51.647  54.329  22.396  1.00  0.00    +0.192 C 
ATOM     18  N   UNL     1      51.617  55.492  22.936  1.00  0.00    -0.272 NA
ATOM     19  H   UNL     1      51.640  52.876  20.984  1.00  0.00    +0.169 HD
BRANCH  18  20
ATOM     20  C   UNL     1      51.291  56.673  22.115  1.00  0.00    +0.182 CG0
ATOM     21  G   UNL     1      49.919  56.628  21.423  1.00  0.00    +0.000 G0
ENDBRANCH  18  20
ENDBRANCH  13  16
BRANCH  15  22
ATOM     22  C   UNL     1      49.912  56.627  21.429  1.00  0.00    +0.188 CG0
ATOM     23  G   UNL     1      51.281  56.661  22.127  1.00  0.00    +0.000 G0
BRANCH  22  24
ATOM     24  O   UNL     1      49.585  57.949  20.970  1.00  0.00    -0.385 OA
ATOM     25  H   UNL     1      48.715  58.136  21.377  1.00  0.00    +0.211 HD
ENDBRANCH  22  24
ENDBRANCH  15  22
ENDBRANCH   3  11
TORSDOF 5
ENDMDL
MODEL 3
REMARK VINA RESULT:    -6.130      3.133      6.427
REMARK INTER + INTRA:          -8.415
REMARK INTER:                  -8.286
REMARK INTRA:                  -0.129
REMARK UNBOUND:                 0.045
REMARK SMILES OCC1OC(n2cnc3c2NC=NC[C@H]3O)CC1O
REMARK SMILES IDX 3 1 4 2 5 3 17 4 18 5 2 6 1 7 19 9 6 11 7 12 10 13 8 14 9 15
REMARK SMILES IDX 11 16 12 17 13 18 14 20 15 22 16 24
REMARK H PARENT 1 8 19 10 11 19 16 25
REMARK Flexibility Score:   20.900
ROOT
ATOM      1  C   UNL     1      50.904  50.966  19.331  1.00  0.00    +0.175 C 
ATOM      2  O   UNL     1      50.266  52.178  19.797  1.00  0.00    -0.350 OA
ATOM      3  C   UNL     1      50.710  52.438  21.143  1.00  0.00    +0.225 C 
ATOM      4  C   UNL     1      51.998  51.663  21.349  1.00  0.00    +0.090 C 
ATOM      5  C   UNL     1      51.752  50.442  20.494  1.00  0.00    +0.150 C 
ENDROOT
BRANCH   1   6
ATOM      6  C   UNL     1      51.713  51.278  18.067  1.00  0.00    +0.190 C 
BRANCH   6   7
ATOM      7  O   UNL     1      52.770  50.336  17.877  1.00  0.00    -0.394 OA
ATOM      8  H   UNL     1      52.396  49.612  17.337  1.00  0.00    +0.210 HD
ENDBRANCH   6   7
ENDBRANCH   1   6
BRANCH   5   9
ATOM      9  O   UNL     1      51.025  49.483  21.271  1.00  0.00    -0.390 OA
ATOM     10  H   UNL     1      50.071  49.667  21.215  1.00  0.00    +0.211 HD
ENDBRANCH   5   9
BRANCH   3  11
ATOM     11  N   UNL     1      50.813  53.863  21.382  1.00  0.00    -0.290 N 
ATOM     12  C   UNL     1      51.633  54.412  22.340  1.00  0.00    +0.203 A 
ATOM     13  C   UNL     1      50.197  54.906  20.738  1.00  0.00    +0.139 A 
ATOM     14  N   UNL     1      51.586  55.725  22.342  1.00  0.00    -0.237 NA
ATOM     15  C   UNL     1      50.689  56.042  21.344  1.00  0.00    +0.113 A 
BRANCH  13  16
ATOM     16  N   UNL     1      49.323  54.783  19.716  1.00  0.00    -0.331 N 
ATOM     17  C   UNL     1      48.707  55.819  19.049  1.00  0.00    +0.192 C 
ATOM     18  N   UNL     1      48.495  57.055  19.316  1.00  0.00    -0.272 NA
ATOM     19  H   UNL     1      49.170  53.862  19.295  1.00  0.00    +0.169 HD
BRANCH  18  20
ATOM     20  C   UNL     1      48.854  57.590  20.643  1.00  0.00    +0.182 CG0
ATOM     21  G   UNL     1      50.338  57.459  21.020  1.00  0.00    +0.000 G0
ENDBRANCH  18  20
ENDBRANCH  13  16
BRANCH  15  22
ATOM     22  C   UNL     1      50.343  57.456  21.017  1.00  0.00    +0.188 CG0
ATOM     23  G   UNL     1      48.857  57.595  20.649  1.00  0.00    +0.000 G0
BRANCH  22  24
ATOM     24  O   UNL     1      50.634  58.313  22.133  1.00  0.00    -0.385 OA
ATOM     25  H   UNL     1      50.606  57.715  22.908  1.00  0.00    +0.211 HD
ENDBRANCH  22  24
ENDBRANCH  15  22
ENDBRANCH   3  11
TORSDOF 5
ENDMDL
MODEL 4
REMARK VINA RESULT:    -5.858      4.808      8.091
REMARK INTER + INTRA:          -8.040
REMARK INTER:                  -7.909
REMARK INTRA:                  -0.131
REMARK UNBOUND:                 0.045
REMARK SMILES OCC1OC(n2cnc3c2NC=NC[C@H]3O)CC1O
REMARK SMILES IDX 3 1 4 2 5 3 17 4 18 5 2 6 1 7 19 9 6 11 7 12 10 13 8 14 9 15
REMARK SMILES IDX 11 16 12 17 13 18 14 20 15 22 16 24
REMARK H PARENT 1 8 19 10 11 19 16 25
REMARK Flexibility Score:   20.900
ROOT
ATOM      1  C   UNL     1      46.060  47.062  17.660  1.00  0.00    +0.175 C 
ATOM      2  O   UNL     1      47.371  47.671  17.747  1.00  0.00    -0.350 OA
ATOM      3  C   UNL     1      47.553  48.527  16.603  1.00  0.00    +0.225 C 
ATOM      4  C   UNL     1      46.174  48.838  16.052  1.00  0.00    +0.090 C 
ATOM      5  C   UNL     1      45.435  47.556  16.351  1.00  0.00    +0.150 C 
ENDROOT
BRANCH   1   6
ATOM      6  C   UNL     1      45.252  47.429  18.909  1.00  0.00    +0.190 C 
BRANCH   6   7
ATOM      7  O   UNL     1      44.157  46.533  19.105  1.00  0.00    -0.394 OA
ATOM      8  H   UNL     1      43.965  46.143  18.229  1.00  0.00    +0.210 HD
ENDBRANCH   6   7
ENDBRANCH   1   6
BRANCH   5   9
ATOM      9  O   UNL     1      45.678  46.632  15.284  1.00  0.00    -0.390 OA
ATOM     10  H   UNL     1      45.805  47.116  14.450  1.00  0.00    +0.211 HD
ENDBRANCH   5   9
BRANCH   3  11
ATOM     11  N   UNL     1      48.344  49.690  16.955  1.00  0.00    -0.290 N 
ATOM     12  C   UNL     1      48.209  50.911  16.336  1.00  0.00    +0.203 A 
ATOM     13  C   UNL     1      49.300  49.837  17.926  1.00  0.00    +0.139 A 
ATOM     14  N   UNL     1      49.004  51.820  16.853  1.00  0.00    -0.237 NA
ATOM     15  C   UNL     1      49.692  51.155  17.847  1.00  0.00    +0.113 A 
BRANCH  13  16
ATOM     16  N   UNL     1      49.711  48.864  18.769  1.00  0.00    -0.331 N 
ATOM     17  C   UNL     1      50.653  49.000  19.764  1.00  0.00    +0.192 C 
ATOM     18  N   UNL     1      51.584  49.848  20.004  1.00  0.00    -0.272 NA
ATOM     19  H   UNL     1      49.217  47.966  18.777  1.00  0.00    +0.169 HD
BRANCH  18  20
ATOM     20  C   UNL     1      51.883  50.907  19.023  1.00  0.00    +0.182 CG0
ATOM     21  G   UNL     1      50.708  51.844  18.696  1.00  0.00    +0.000 G0
ENDBRANCH  18  20
ENDBRANCH  13  16
BRANCH  15  22
ATOM     22  C   UNL     1      50.715  51.841  18.689  1.00  0.00    +0.188 CG0
ATOM     23  G   UNL     1      51.882  50.898  19.026  1.00  0.00    +0.000 G0
BRANCH  22  24
ATOM     24  O   UNL     1      51.226  52.999  18.011  1.00  0.00    -0.385 OA
ATOM     25  H   UNL     1      50.456  53.601  17.951  1.00  0.00    +0.211 HD
ENDBRANCH  22  24
ENDBRANCH  15  22
ENDBRANCH   3  11
TORSDOF 5
ENDMDL
MODEL 5
REMARK VINA RESULT:    -5.756      4.296      5.931
REMARK INTER + INTRA:          -7.899
REMARK INTER:                  -7.589
REMARK INTRA:                  -0.309
REMARK UNBOUND:                 0.045
REMARK SMILES OCC1OC(n2cnc3c2NC=NC[C@H]3O)CC1O
REMARK SMILES IDX 3 1 4 2 5 3 17 4 18 5 2 6 1 7 19 9 6 11 7 12 10 13 8 14 9 15
REMARK SMILES IDX 11 16 12 17 13 18 14 20 15 22 16 24
REMARK H PARENT 1 8 19 10 11 19 16 25
REMARK Flexibility Score:   20.900
ROOT
ATOM      1  C   UNL     1      52.751  51.561  19.720  1.00  0.00    +0.175 C 
ATOM      2  O   UNL     1      52.107  50.434  19.081  1.00  0.00    -0.350 OA
ATOM      3  C   UNL     1      50.967  50.049  19.874  1.00  0.00    +0.225 C 
ATOM      4  C   UNL     1      50.609  51.236  20.749  1.00  0.00    +0.090 C 
ATOM      5  C   UNL     1      51.969  51.839  21.007  1.00  0.00    +0.150 C 
ENDROOT
BRANCH   1   6
ATOM      6  C   UNL     1      52.781  52.742  18.746  1.00  0.00    +0.190 C 
BRANCH   6   7
ATOM      7  O   UNL     1      53.128  52.322  17.425  1.00  0.00    -0.394 OA
ATOM      8  H   UNL     1      52.563  52.840  16.817  1.00  0.00    +0.210 HD
ENDBRANCH   6   7
ENDBRANCH   1   6
BRANCH   5   9
ATOM      9  O   UNL     1      52.559  51.166  22.125  1.00  0.00    -0.390 OA
ATOM     10  H   UNL     1      51.901  50.586  22.547  1.00  0.00    +0.211 HD
ENDBRANCH   5   9
BRANCH   3  11
ATOM     11  N   UNL     1      49.893  49.569  19.029  1.00  0.00    -0.290 N 
ATOM     12  C   UNL     1      48.784  48.916  19.513  1.00  0.00    +0.203 A 
ATOM     13  C   UNL     1      49.731  49.680  17.672  1.00  0.00    +0.139 A 
ATOM     14  N   UNL     1      47.930  48.614  18.561  1.00  0.00    -0.237 NA
ATOM     15  C   UNL     1      48.515  49.087  17.406  1.00  0.00    +0.113 A 
BRANCH  13  16
ATOM     16  N   UNL     1      50.601  50.278  16.829  1.00  0.00    -0.331 N 
ATOM     17  C   UNL     1      50.444  50.416  15.468  1.00  0.00    +0.192 C 
ATOM     18  N   UNL     1      49.716  49.833  14.587  1.00  0.00    -0.272 NA
ATOM     19  H   UNL     1      51.401  50.789  17.214  1.00  0.00    +0.169 HD
BRANCH  18  20
ATOM     20  C   UNL     1      48.890  48.673  14.970  1.00  0.00    +0.182 CG0
ATOM     21  G   UNL     1      47.856  48.945  16.075  1.00  0.00    +0.000 G0
ENDBRANCH  18  20
ENDBRANCH  13  16
BRANCH  15  22
ATOM     22  C   UNL     1      47.859  48.940  16.075  1.00  0.00    +0.188 CG0
ATOM     23  G   UNL     1      48.895  48.676  14.969  1.00  0.00    +0.000 G0
BRANCH  22  24
ATOM     24  O   UNL     1      46.912  47.860  16.100  1.00  0.00    -0.385 OA
ATOM     25  H   UNL     1      46.126  48.240  16.543  1.00  0.00    +0.211 HD
ENDBRANCH  22  24
ENDBRANCH  15  22
ENDBRANCH   3  11
TORSDOF 5
ENDMDL
