MODEL 1
REMARK VINA RESULT:    -6.748      0.000      0.000
REMARK INTER + INTRA:          -9.836
REMARK INTER:                  -9.312
REMARK INTRA:                  -0.524
REMARK UNBOUND:                -0.524
REMARK SMILES CCCCCCCn1cc2c(N)ncnc2n1
REMARK SMILES IDX 5 1 4 2 3 3 2 4 1 5 6 6 7 7 8 8 9 9 17 10 10 11 16 12 11 13
REMARK SMILES IDX 15 14 13 15 14 16 12 17
REMARK H PARENT 12 18 12 19
ROOT
ATOM      1  C   UNL     1      51.023  57.793  21.280  1.00  0.00    +0.002 C 
ENDROOT
BRANCH   1   2
ATOM      2  C   UNL     1      49.646  57.447  21.858  1.00  0.00    +0.000 C 
BRANCH   2   3
ATOM      3  C   UNL     1      48.491  57.995  21.014  1.00  0.00    -0.000 C 
BRANCH   3   4
ATOM      4  C   UNL     1      47.798  56.954  20.131  1.00  0.00    -0.003 C 
ATOM      5  C   UNL     1      48.510  55.614  20.061  1.00  0.00    +0.004 C 
ENDBRANCH   3   4
ENDBRANCH   2   3
ENDBRANCH   1   2
BRANCH   1   6
ATOM      6  C   UNL     1      52.150  56.922  21.841  1.00  0.00    +0.024 C 
BRANCH   6   7
ATOM      7  C   UNL     1      51.655  55.618  22.463  1.00  0.00    +0.144 C 
BRANCH   7   8
ATOM      8  N   UNL     1      51.803  54.495  21.552  1.00  0.00    -0.270 N 
ATOM      9  C   UNL     1      51.631  53.171  21.861  1.00  0.00    +0.123 A 
ATOM     10  N   UNL     1      52.148  54.725  20.265  1.00  0.00    -0.152 NA
ATOM     11  C   UNL     1      51.869  52.512  20.684  1.00  0.00    +0.081 A 
ATOM     12  C   UNL     1      52.179  53.505  19.722  1.00  0.00    +0.186 A 
ATOM     13  C   UNL     1      51.820  51.144  20.427  1.00  0.00    +0.137 A 
ATOM     14  N   UNL     1      52.463  53.188  18.438  1.00  0.00    -0.215 NA
ATOM     15  N   UNL     1      52.107  50.831  19.140  1.00  0.00    -0.219 NA
ATOM     16  C   UNL     1      52.396  51.842  18.255  1.00  0.00    +0.226 A 
BRANCH  13  17
ATOM     17  N   UNL     1      51.536  50.134  21.328  1.00  0.00    -0.383 N 
ATOM     18  H   UNL     1      51.734  49.223  20.931  1.00  0.00    +0.158 HD
ATOM     19  H   UNL     1      51.859  50.294  22.272  1.00  0.00    +0.158 HD
ENDBRANCH  13  17
ENDBRANCH   7   8
ENDBRANCH   6   7
ENDBRANCH   1   6
TORSDOF 7
ENDMDL
MODEL 2
REMARK VINA RESULT:    -6.623      1.298      1.767
REMARK INTER + INTRA:          -9.664
REMARK INTER:                  -9.316
REMARK INTRA:                  -0.348
REMARK UNBOUND:                -0.524
REMARK SMILES CCCCCCCn1cc2c(N)ncnc2n1
REMARK SMILES IDX 5 1 4 2 3 3 2 4 1 5 6 6 7 7 8 8 9 9 17 10 10 11 16 12 11 13
REMARK SMILES IDX 15 14 13 15 14 16 12 17
REMARK H PARENT 12 18 12 19
ROOT
ATOM      1  C   UNL     1      49.423  57.756  21.604  1.00  0.00    +0.002 C 
ENDROOT
BRANCH   1   2
ATOM      2  C   UNL     1      48.601  57.558  20.326  1.00  0.00    +0.000 C 
BRANCH   2   3
ATOM      3  C   UNL     1      47.412  58.521  20.228  1.00  0.00    -0.000 C 
BRANCH   3   4
ATOM      4  C   UNL     1      47.436  59.441  19.005  1.00  0.00    -0.003 C 
ATOM      5  C   UNL     1      46.946  60.854  19.271  1.00  0.00    +0.004 C 
ENDBRANCH   3   4
ENDBRANCH   2   3
ENDBRANCH   1   2
BRANCH   1   6
ATOM      6  C   UNL     1      50.919  57.494  21.406  1.00  0.00    +0.024 C 
BRANCH   6   7
ATOM      7  C   UNL     1      51.451  56.348  22.265  1.00  0.00    +0.144 C 
BRANCH   7   8
ATOM      8  N   UNL     1      51.728  55.162  21.471  1.00  0.00    -0.270 N 
ATOM      9  C   UNL     1      51.687  53.864  21.910  1.00  0.00    +0.123 A 
ATOM     10  N   UNL     1      52.067  55.299  20.170  1.00  0.00    -0.152 NA
ATOM     11  C   UNL     1      52.010  53.120  20.805  1.00  0.00    +0.081 A 
ATOM     12  C   UNL     1      52.232  54.041  19.751  1.00  0.00    +0.186 A 
ATOM     13  C   UNL     1      52.106  51.736  20.686  1.00  0.00    +0.137 A 
ATOM     14  N   UNL     1      52.566  53.629  18.506  1.00  0.00    -0.215 NA
ATOM     15  N   UNL     1      52.443  51.329  19.438  1.00  0.00    -0.219 NA
ATOM     16  C   UNL     1      52.641  52.273  18.458  1.00  0.00    +0.226 A 
BRANCH  13  17
ATOM     17  N   UNL     1      51.912  50.796  21.681  1.00  0.00    -0.383 N 
ATOM     18  H   UNL     1      52.770  50.295  21.883  1.00  0.00    +0.158 HD
ATOM     19  H   UNL     1      51.378  51.115  22.478  1.00  0.00    +0.158 HD
ENDBRANCH  13  17
ENDBRANCH   7   8
ENDBRANCH   6   7
ENDBRANCH   1   6
TORSDOF 7
ENDMDL
MODEL 3
REMARK VINA RESULT:    -6.543      4.711      6.757
REMARK INTER + INTRA:          -9.553
REMARK INTER:                  -9.140
REMARK INTRA:                  -0.413
REMARK UNBOUND:                -0.524
REMARK SMILES CCCCCCCn1cc2c(N)ncnc2n1
REMARK SMILES IDX 5 1 4 2 3 3 2 4 1 5 6 6 7 7 8 8 9 9 17 10 10 11 16 12 11 13
REMARK SMILES IDX 15 14 13 15 14 16 12 17
REMARK H PARENT 12 18 12 19
ROOT
ATOM      1  C   UNL     1      46.872  49.401  17.331  1.00  0.00    +0.002 C 
ENDROOT
BRANCH   1   2
ATOM      2  C   UNL     1      45.505  49.052  16.733  1.00  0.00    +0.000 C 
BRANCH   2   3
ATOM      3  C   UNL     1      44.770  47.963  17.522  1.00  0.00    -0.000 C 
BRANCH   3   4
ATOM      4  C   UNL     1      45.424  47.592  18.856  1.00  0.00    -0.003 C 
ATOM      5  C   UNL     1      44.488  46.931  19.853  1.00  0.00    +0.004 C 
ENDBRANCH   3   4
ENDBRANCH   2   3
ENDBRANCH   1   2
BRANCH   1   6
ATOM      6  C   UNL     1      47.192  50.897  17.277  1.00  0.00    +0.024 C 
BRANCH   6   7
ATOM      7  C   UNL     1      48.610  51.196  16.793  1.00  0.00    +0.144 C 
BRANCH   7   8
ATOM      8  N   UNL     1      49.558  51.237  17.894  1.00  0.00    -0.270 N 
ATOM      9  C   UNL     1      50.446  50.250  18.238  1.00  0.00    +0.123 A 
ATOM     10  N   UNL     1      49.606  52.330  18.688  1.00  0.00    -0.152 NA
ATOM     11  C   UNL     1      51.116  50.757  19.320  1.00  0.00    +0.081 A 
ATOM     12  C   UNL     1      50.574  52.043  19.564  1.00  0.00    +0.186 A 
ATOM     13  C   UNL     1      52.139  50.172  20.062  1.00  0.00    +0.137 A 
ATOM     14  N   UNL     1      51.024  52.826  20.571  1.00  0.00    -0.215 NA
ATOM     15  N   UNL     1      52.586  50.959  21.072  1.00  0.00    -0.219 NA
ATOM     16  C   UNL     1      52.020  52.199  21.252  1.00  0.00    +0.226 A 
BRANCH  13  17
ATOM     17  N   UNL     1      52.696  48.920  19.875  1.00  0.00    -0.383 N 
ATOM     18  H   UNL     1      53.630  48.873  20.268  1.00  0.00    +0.158 HD
ATOM     19  H   UNL     1      52.084  48.142  20.075  1.00  0.00    +0.158 HD
ENDBRANCH  13  17
ENDBRANCH   7   8
ENDBRANCH   6   7
ENDBRANCH   1   6
TORSDOF 7
ENDMDL
MODEL 4
REMARK VINA RESULT:    -6.489      1.055      2.076
REMARK INTER + INTRA:          -9.479
REMARK INTER:                  -9.021
REMARK INTRA:                  -0.457
REMARK UNBOUND:                -0.524
REMARK SMILES CCCCCCCn1cc2c(N)ncnc2n1
REMARK SMILES IDX 5 1 4 2 3 3 2 4 1 5 6 6 7 7 8 8 9 9 17 10 10 11 16 12 11 13
REMARK SMILES IDX 15 14 13 15 14 16 12 17
REMARK H PARENT 12 18 12 19
ROOT
ATOM      1  C   UNL     1      51.381  57.806  21.404  1.00  0.00    +0.002 C 
ENDROOT
BRANCH   1   2
ATOM      2  C   UNL     1      50.050  57.184  21.840  1.00  0.00    +0.000 C 
BRANCH   2   3
ATOM      3  C   UNL     1      48.903  58.200  21.880  1.00  0.00    -0.000 C 
BRANCH   3   4
ATOM      4  C   UNL     1      47.910  58.085  20.720  1.00  0.00    -0.003 C 
ATOM      5  C   UNL     1      47.808  56.696  20.114  1.00  0.00    +0.004 C 
ENDBRANCH   3   4
ENDBRANCH   2   3
ENDBRANCH   1   2
BRANCH   1   6
ATOM      6  C   UNL     1      52.490  56.772  21.194  1.00  0.00    +0.024 C 
BRANCH   6   7
ATOM      7  C   UNL     1      52.464  56.128  19.809  1.00  0.00    +0.144 C 
BRANCH   7   8
ATOM      8  N   UNL     1      52.341  54.682  19.888  1.00  0.00    -0.270 N 
ATOM      9  C   UNL     1      52.495  53.796  18.853  1.00  0.00    +0.123 A 
ATOM     10  N   UNL     1      52.043  54.105  21.073  1.00  0.00    -0.152 NA
ATOM     11  C   UNL     1      52.295  52.567  19.423  1.00  0.00    +0.081 A 
ATOM     12  C   UNL     1      52.023  52.798  20.794  1.00  0.00    +0.186 A 
ATOM     13  C   UNL     1      52.345  51.311  18.823  1.00  0.00    +0.137 A 
ATOM     14  N   UNL     1      51.783  51.781  21.654  1.00  0.00    -0.215 NA
ATOM     15  N   UNL     1      52.101  50.295  19.687  1.00  0.00    -0.219 NA
ATOM     16  C   UNL     1      51.848  50.587  21.007  1.00  0.00    +0.226 A 
BRANCH  13  17
ATOM     17  N   UNL     1      52.593  51.030  17.492  1.00  0.00    -0.383 N 
ATOM     18  H   UNL     1      51.760  51.160  16.929  1.00  0.00    +0.158 HD
ATOM     19  H   UNL     1      53.451  51.415  17.122  1.00  0.00    +0.158 HD
ENDBRANCH  13  17
ENDBRANCH   7   8
ENDBRANCH   6   7
ENDBRANCH   1   6
TORSDOF 7
ENDMDL
MODEL 5
REMARK VINA RESULT:    -6.207      1.842      2.267
REMARK INTER + INTRA:          -9.090
REMARK INTER:                  -8.600
REMARK INTRA:                  -0.490
REMARK UNBOUND:                -0.524
REMARK SMILES CCCCCCCn1cc2c(N)ncnc2n1
REMARK SMILES IDX 5 1 4 2 3 3 2 4 1 5 6 6 7 7 8 8 9 9 17 10 10 11 16 12 11 13
REMARK SMILES IDX 15 14 13 15 14 16 12 17
REMARK H PARENT 12 18 12 19
ROOT
ATOM      1  C   UNL     1      51.960  56.285  21.737  1.00  0.00    +0.002 C 
ENDROOT
BRANCH   1   2
ATOM      2  C   UNL     1      51.079  57.425  21.214  1.00  0.00    +0.000 C 
BRANCH   2   3
ATOM      3  C   UNL     1      49.671  57.416  21.820  1.00  0.00    -0.000 C 
BRANCH   3   4
ATOM      4  C   UNL     1      48.536  57.417  20.792  1.00  0.00    -0.003 C 
ATOM      5  C   UNL     1      48.332  56.090  20.079  1.00  0.00    +0.004 C 
ENDBRANCH   3   4
ENDBRANCH   2   3
ENDBRANCH   1   2
BRANCH   1   6
ATOM      6  C   UNL     1      51.844  55.003  20.909  1.00  0.00    +0.024 C 
BRANCH   6   7
ATOM      7  C   UNL     1      51.705  53.742  21.760  1.00  0.00    +0.144 C 
BRANCH   7   8
ATOM      8  N   UNL     1      51.231  52.612  20.978  1.00  0.00    -0.270 N 
ATOM      9  C   UNL     1      51.455  51.287  21.248  1.00  0.00    +0.123 A 
ATOM     10  N   UNL     1      50.497  52.837  19.865  1.00  0.00    -0.152 NA
ATOM     11  C   UNL     1      50.806  50.620  20.243  1.00  0.00    +0.081 A 
ATOM     12  C   UNL     1      50.223  51.610  19.413  1.00  0.00    +0.186 A 
ATOM     13  C   UNL     1      50.701  49.247  20.036  1.00  0.00    +0.137 A 
ATOM     14  N   UNL     1      49.496  51.284  18.319  1.00  0.00    -0.215 NA
ATOM     15  N   UNL     1      49.974  48.925  18.938  1.00  0.00    -0.219 NA
ATOM     16  C   UNL     1      49.431  49.933  18.177  1.00  0.00    +0.226 A 
BRANCH  13  17
ATOM     17  N   UNL     1      51.257  48.241  20.805  1.00  0.00    -0.383 N 
ATOM     18  H   UNL     1      51.073  48.390  21.791  1.00  0.00    +0.158 HD
ATOM     19  H   UNL     1      51.117  47.303  20.457  1.00  0.00    +0.158 HD
ENDBRANCH  13  17
ENDBRANCH   7   8
ENDBRANCH   6   7
ENDBRANCH   1   6
TORSDOF 7
ENDMDL
