MODEL 1
REMARK VINA RESULT:    -7.374      0.000      0.000
REMARK INTER + INTRA:         -11.960
REMARK INTER:                 -11.470
REMARK INTRA:                  -0.490
REMARK UNBOUND:                -0.490
REMARK SMILES CCCCCCCCCCn1cc2c(N)ncnc2n1
REMARK SMILES IDX 7 1 6 2 5 3 4 4 3 5 2 6 1 7 8 8 9 9 10 10 11 11 12 12 20 13
REMARK SMILES IDX 13 14 19 15 14 16 18 17 16 18 17 19 15 20
REMARK H PARENT 15 21 15 22
ROOT
ATOM      1  C   UNL     1      48.685  57.308  20.531  1.00  0.00    +0.000 C 
ENDROOT
BRANCH   1   2
ATOM      2  C   UNL     1      47.526  58.300  20.389  1.00  0.00    +0.000 C 
BRANCH   2   3
ATOM      3  C   UNL     1      47.616  59.270  19.208  1.00  0.00    -0.000 C 
BRANCH   3   4
ATOM      4  C   UNL     1      46.441  60.247  19.129  1.00  0.00    -0.000 C 
BRANCH   4   5
ATOM      5  C   UNL     1      46.917  61.660  18.787  1.00  0.00    -0.000 C 
BRANCH   5   6
ATOM      6  C   UNL     1      46.471  62.669  19.845  1.00  0.00    -0.003 C 
ATOM      7  C   UNL     1      45.055  63.158  19.588  1.00  0.00    +0.004 C 
ENDBRANCH   5   6
ENDBRANCH   4   5
ENDBRANCH   3   4
ENDBRANCH   2   3
ENDBRANCH   1   2
BRANCH   1   8
ATOM      8  C   UNL     1      49.536  57.541  21.780  1.00  0.00    +0.002 C 
BRANCH   8   9
ATOM      9  C   UNL     1      51.029  57.459  21.456  1.00  0.00    +0.024 C 
BRANCH   9  10
ATOM     10  C   UNL     1      51.708  56.354  22.261  1.00  0.00    +0.144 C 
BRANCH  10  11
ATOM     11  N   UNL     1      51.855  55.132  21.488  1.00  0.00    -0.270 N 
ATOM     12  C   UNL     1      51.705  53.853  21.956  1.00  0.00    +0.123 A 
ATOM     13  N   UNL     1      52.174  55.211  20.177  1.00  0.00    -0.152 NA
ATOM     14  C   UNL     1      51.931  53.059  20.861  1.00  0.00    +0.081 A 
ATOM     15  C   UNL     1      52.212  53.935  19.783  1.00  0.00    +0.186 A 
ATOM     16  C   UNL     1      51.894  51.671  20.770  1.00  0.00    +0.137 A 
ATOM     17  N   UNL     1      52.478  53.469  18.540  1.00  0.00    -0.215 NA
ATOM     18  N   UNL     1      52.164  51.208  19.525  1.00  0.00    -0.219 NA
ATOM     19  C   UNL     1      52.426  52.110  18.519  1.00  0.00    +0.226 A 
BRANCH  16  20
ATOM     20  N   UNL     1      51.638  50.773  21.790  1.00  0.00    -0.383 N 
ATOM     21  H   UNL     1      52.052  51.003  22.682  1.00  0.00    +0.158 HD
ATOM     22  H   UNL     1      51.751  49.817  21.472  1.00  0.00    +0.158 HD
ENDBRANCH  16  20
ENDBRANCH  10  11
ENDBRANCH   9  10
ENDBRANCH   8   9
ENDBRANCH   1   8
TORSDOF 10
ENDMDL
MODEL 2
REMARK VINA RESULT:    -7.125      2.378      4.555
REMARK INTER + INTRA:         -11.572
REMARK INTER:                 -10.433
REMARK INTRA:                  -1.140
REMARK UNBOUND:                -0.490
REMARK SMILES CCCCCCCCCCn1cc2c(N)ncnc2n1
REMARK SMILES IDX 7 1 6 2 5 3 4 4 3 5 2 6 1 7 8 8 9 9 10 10 11 11 12 12 20 13
REMARK SMILES IDX 13 14 19 15 14 16 18 17 16 18 17 19 15 20
REMARK H PARENT 15 21 15 22
ROOT
ATOM      1  C   UNL     1      48.649  57.802  20.540  1.00  0.00    +0.000 C 
ENDROOT
BRANCH   1   2
ATOM      2  C   UNL     1      48.160  56.387  20.217  1.00  0.00    +0.000 C 
BRANCH   2   3
ATOM      3  C   UNL     1      48.813  55.714  19.006  1.00  0.00    -0.000 C 
BRANCH   3   4
ATOM      4  C   UNL     1      48.617  54.197  18.971  1.00  0.00    -0.000 C 
BRANCH   4   5
ATOM      5  C   UNL     1      48.759  53.652  17.548  1.00  0.00    -0.000 C 
BRANCH   5   6
ATOM      6  C   UNL     1      48.346  52.183  17.471  1.00  0.00    -0.003 C 
ATOM      7  C   UNL     1      49.341  51.366  16.662  1.00  0.00    +0.004 C 
ENDBRANCH   5   6
ENDBRANCH   4   5
ENDBRANCH   3   4
ENDBRANCH   2   3
ENDBRANCH   1   2
BRANCH   1   8
ATOM      8  C   UNL     1      49.466  57.883  21.831  1.00  0.00    +0.002 C 
BRANCH   8   9
ATOM      9  C   UNL     1      50.933  57.524  21.580  1.00  0.00    +0.024 C 
BRANCH   9  10
ATOM     10  C   UNL     1      51.347  56.300  22.393  1.00  0.00    +0.144 C 
BRANCH  10  11
ATOM     11  N   UNL     1      51.629  55.155  21.542  1.00  0.00    -0.270 N 
ATOM     12  C   UNL     1      51.631  53.840  21.928  1.00  0.00    +0.123 A 
ATOM     13  N   UNL     1      51.928  55.355  20.240  1.00  0.00    -0.152 NA
ATOM     14  C   UNL     1      51.940  53.150  20.784  1.00  0.00    +0.081 A 
ATOM     15  C   UNL     1      52.110  54.120  19.764  1.00  0.00    +0.186 A 
ATOM     16  C   UNL     1      52.064  51.776  20.602  1.00  0.00    +0.137 A 
ATOM     17  N   UNL     1      52.420  53.769  18.494  1.00  0.00    -0.215 NA
ATOM     18  N   UNL     1      52.377  51.429  19.330  1.00  0.00    -0.219 NA
ATOM     19  C   UNL     1      52.525  52.417  18.386  1.00  0.00    +0.226 A 
BRANCH  16  20
ATOM     20  N   UNL     1      51.920  50.790  21.563  1.00  0.00    -0.383 N 
ATOM     21  H   UNL     1      51.003  50.726  21.981  1.00  0.00    +0.158 HD
ATOM     22  H   UNL     1      52.709  50.783  22.200  1.00  0.00    +0.158 HD
ENDBRANCH  16  20
ENDBRANCH  10  11
ENDBRANCH   9  10
ENDBRANCH   8   9
ENDBRANCH   1   8
TORSDOF 10
ENDMDL
MODEL 3
REMARK VINA RESULT:    -6.804      3.266      5.511
REMARK INTER + INTRA:         -11.072
REMARK INTER:                 -10.336
REMARK INTRA:                  -0.736
REMARK UNBOUND:                -0.490
REMARK SMILES CCCCCCCCCCn1cc2c(N)ncnc2n1
REMARK SMILES IDX 7 1 6 2 5 3 4 4 3 5 2 6 1 7 8 8 9 9 10 10 11 11 12 12 20 13
REMARK SMILES IDX 13 14 19 15 14 16 18 17 16 18 17 19 15 20
REMARK H PARENT 15 21 15 22
ROOT
ATOM      1  C   UNL     1      51.619  53.459  22.152  1.00  0.00    +0.000 C 
ENDROOT
BRANCH   1   2
ATOM      2  C   UNL     1      51.236  54.718  21.369  1.00  0.00    +0.000 C 
BRANCH   2   3
ATOM      3  C   UNL     1      49.965  54.618  20.522  1.00  0.00    -0.000 C 
BRANCH   3   4
ATOM      4  C   UNL     1      49.247  55.956  20.338  1.00  0.00    -0.000 C 
BRANCH   4   5
ATOM      5  C   UNL     1      49.675  56.966  21.405  1.00  0.00    -0.000 C 
BRANCH   5   6
ATOM      6  C   UNL     1      48.672  58.114  21.520  1.00  0.00    -0.003 C 
ATOM      7  C   UNL     1      47.447  57.872  20.652  1.00  0.00    +0.004 C 
ENDBRANCH   5   6
ENDBRANCH   4   5
ENDBRANCH   3   4
ENDBRANCH   2   3
ENDBRANCH   1   2
BRANCH   1   8
ATOM      8  C   UNL     1      51.189  52.161  21.466  1.00  0.00    +0.002 C 
BRANCH   8   9
ATOM      9  C   UNL     1      52.312  51.598  20.593  1.00  0.00    +0.024 C 
BRANCH   9  10
ATOM     10  C   UNL     1      51.981  50.188  20.110  1.00  0.00    +0.144 C 
BRANCH  10  11
ATOM     11  N   UNL     1      50.803  50.169  19.259  1.00  0.00    -0.270 N 
ATOM     12  C   UNL     1      49.683  49.402  19.443  1.00  0.00    +0.123 A 
ATOM     13  N   UNL     1      50.762  50.962  18.166  1.00  0.00    -0.152 NA
ATOM     14  C   UNL     1      48.861  49.742  18.399  1.00  0.00    +0.081 A 
ATOM     15  C   UNL     1      49.561  50.710  17.638  1.00  0.00    +0.186 A 
ATOM     16  C   UNL     1      47.585  49.270  18.106  1.00  0.00    +0.137 A 
ATOM     17  N   UNL     1      49.022  51.266  16.527  1.00  0.00    -0.215 NA
ATOM     18  N   UNL     1      47.050  49.826  16.992  1.00  0.00    -0.219 NA
ATOM     19  C   UNL     1      47.780  50.763  16.298  1.00  0.00    +0.226 A 
BRANCH  16  20
ATOM     20  N   UNL     1      46.864  48.319  18.808  1.00  0.00    -0.383 N 
ATOM     21  H   UNL     1      46.950  47.373  18.465  1.00  0.00    +0.158 HD
ATOM     22  H   UNL     1      45.924  48.645  19.004  1.00  0.00    +0.158 HD
ENDBRANCH  16  20
ENDBRANCH  10  11
ENDBRANCH   9  10
ENDBRANCH   8   9
ENDBRANCH   1   8
TORSDOF 10
ENDMDL
MODEL 4
REMARK VINA RESULT:    -6.637      1.009      2.005
REMARK INTER + INTRA:         -10.813
REMARK INTER:                 -10.380
REMARK INTRA:                  -0.434
REMARK UNBOUND:                -0.490
REMARK SMILES CCCCCCCCCCn1cc2c(N)ncnc2n1
REMARK SMILES IDX 7 1 6 2 5 3 4 4 3 5 2 6 1 7 8 8 9 9 10 10 11 11 12 12 20 13
REMARK SMILES IDX 13 14 19 15 14 16 18 17 16 18 17 19 15 20
REMARK H PARENT 15 21 15 22
ROOT
ATOM      1  C   UNL     1      47.704  58.032  20.634  1.00  0.00    +0.000 C 
ENDROOT
BRANCH   1   2
ATOM      2  C   UNL     1      47.795  58.843  19.338  1.00  0.00    +0.000 C 
BRANCH   2   3
ATOM      3  C   UNL     1      46.720  59.915  19.143  1.00  0.00    -0.000 C 
BRANCH   3   4
ATOM      4  C   UNL     1      47.269  61.343  19.178  1.00  0.00    -0.000 C 
BRANCH   4   5
ATOM      5  C   UNL     1      46.250  62.342  18.625  1.00  0.00    -0.000 C 
BRANCH   5   6
ATOM      6  C   UNL     1      45.352  62.891  19.734  1.00  0.00    -0.003 C 
ATOM      7  C   UNL     1      43.899  62.497  19.520  1.00  0.00    +0.004 C 
ENDBRANCH   5   6
ENDBRANCH   4   5
ENDBRANCH   3   4
ENDBRANCH   2   3
ENDBRANCH   1   2
BRANCH   1   8
ATOM      8  C   UNL     1      48.865  58.290  21.597  1.00  0.00    +0.002 C 
BRANCH   8   9
ATOM      9  C   UNL     1      49.739  57.044  21.756  1.00  0.00    +0.024 C 
BRANCH   9  10
ATOM     10  C   UNL     1      50.520  56.753  20.477  1.00  0.00    +0.144 C 
BRANCH  10  11
ATOM     11  N   UNL     1      51.021  55.389  20.447  1.00  0.00    -0.270 N 
ATOM     12  C   UNL     1      51.563  54.748  19.363  1.00  0.00    +0.123 A 
ATOM     13  N   UNL     1      50.966  54.638  21.568  1.00  0.00    -0.152 NA
ATOM     14  C   UNL     1      51.890  53.502  19.832  1.00  0.00    +0.081 A 
ATOM     15  C   UNL     1      51.512  53.475  21.198  1.00  0.00    +0.186 A 
ATOM     16  C   UNL     1      52.486  52.445  19.152  1.00  0.00    +0.137 A 
ATOM     17  N   UNL     1      51.704  52.379  21.967  1.00  0.00    -0.215 NA
ATOM     18  N   UNL     1      52.675  51.348  19.925  1.00  0.00    -0.219 NA
ATOM     19  C   UNL     1      52.288  51.386  21.244  1.00  0.00    +0.226 A 
BRANCH  16  20
ATOM     20  N   UNL     1      52.864  52.414  17.821  1.00  0.00    -0.383 N 
ATOM     21  H   UNL     1      53.860  52.371  17.656  1.00  0.00    +0.158 HD
ATOM     22  H   UNL     1      52.346  53.096  17.278  1.00  0.00    +0.158 HD
ENDBRANCH  16  20
ENDBRANCH  10  11
ENDBRANCH   9  10
ENDBRANCH   8   9
ENDBRANCH   1   8
TORSDOF 10
ENDMDL
MODEL 5
REMARK VINA RESULT:    -6.582      4.317      8.070
REMARK INTER + INTRA:         -10.727
REMARK INTER:                 -10.127
REMARK INTRA:                  -0.601
REMARK UNBOUND:                -0.490
REMARK SMILES CCCCCCCCCCn1cc2c(N)ncnc2n1
REMARK SMILES IDX 7 1 6 2 5 3 4 4 3 5 2 6 1 7 8 8 9 9 10 10 11 11 12 12 20 13
REMARK SMILES IDX 13 14 19 15 14 16 18 17 16 18 17 19 15 20
REMARK H PARENT 15 21 15 22
ROOT
ATOM      1  C   UNL     1      50.053  50.598  18.636  1.00  0.00    +0.000 C 
ENDROOT
BRANCH   1   2
ATOM      2  C   UNL     1      49.641  49.155  18.941  1.00  0.00    +0.000 C 
BRANCH   2   3
ATOM      3  C   UNL     1      48.492  48.595  18.098  1.00  0.00    -0.000 C 
BRANCH   3   4
ATOM      4  C   UNL     1      47.157  48.541  18.843  1.00  0.00    -0.000 C 
BRANCH   4   5
ATOM      5  C   UNL     1      45.988  48.866  17.911  1.00  0.00    -0.000 C 
BRANCH   5   6
ATOM      6  C   UNL     1      44.976  47.721  17.867  1.00  0.00    -0.003 C 
ATOM      7  C   UNL     1      44.675  47.190  19.260  1.00  0.00    +0.004 C 
ENDBRANCH   5   6
ENDBRANCH   4   5
ENDBRANCH   3   4
ENDBRANCH   2   3
ENDBRANCH   1   2
BRANCH   1   8
ATOM      8  C   UNL     1      48.946  51.421  17.974  1.00  0.00    +0.002 C 
BRANCH   8   9
ATOM      9  C   UNL     1      49.448  52.812  17.585  1.00  0.00    +0.024 C 
BRANCH   9  10
ATOM     10  C   UNL     1      48.761  53.897  18.412  1.00  0.00    +0.144 C 
BRANCH  10  11
ATOM     11  N   UNL     1      49.679  54.531  19.343  1.00  0.00    -0.270 N 
ATOM     12  C   UNL     1      50.077  54.033  20.556  1.00  0.00    +0.123 A 
ATOM     13  N   UNL     1      50.215  55.732  19.031  1.00  0.00    -0.152 NA
ATOM     14  C   UNL     1      50.941  54.977  21.046  1.00  0.00    +0.081 A 
ATOM     15  C   UNL     1      51.004  56.007  20.074  1.00  0.00    +0.186 A 
ATOM     16  C   UNL     1      51.649  54.972  22.245  1.00  0.00    +0.137 A 
ATOM     17  N   UNL     1      51.781  57.101  20.247  1.00  0.00    -0.215 NA
ATOM     18  N   UNL     1      52.424  56.070  22.415  1.00  0.00    -0.219 NA
ATOM     19  C   UNL     1      52.443  57.033  21.433  1.00  0.00    +0.226 A 
BRANCH  16  20
ATOM     20  N   UNL     1      51.615  54.001  23.230  1.00  0.00    -0.383 N 
ATOM     21  H   UNL     1      50.725  53.540  23.352  1.00  0.00    +0.158 HD
ATOM     22  H   UNL     1      52.077  54.321  24.074  1.00  0.00    +0.158 HD
ENDBRANCH  16  20
ENDBRANCH  10  11
ENDBRANCH   9  10
ENDBRANCH   8   9
ENDBRANCH   1   8
TORSDOF 10
ENDMDL
