MODEL 1
REMARK VINA RESULT:    -7.307      0.000      0.000
REMARK INTER + INTRA:         -11.822
REMARK INTER:                 -10.724
REMARK INTRA:                  -1.098
REMARK UNBOUND:                -1.098
REMARK SMILES CCCCCCC(C(C)O)n1cc2c(N)ncnc2n1
REMARK SMILES IDX 5 1 4 2 3 3 2 4 1 5 6 6 7 7 8 8 9 9 10 10 11 12 12 13 20 14
REMARK SMILES IDX 13 15 19 16 14 17 18 18 16 19 17 20 15 21
REMARK H PARENT 10 11 15 22 15 23
ROOT
ATOM      1  C   UNL     1      49.358  57.638  21.761  1.00  0.00    +0.002 C 
ENDROOT
BRANCH   1   2
ATOM      2  C   UNL     1      48.126  57.514  20.859  1.00  0.00    +0.000 C 
BRANCH   2   3
ATOM      3  C   UNL     1      48.424  56.653  19.629  1.00  0.00    -0.000 C 
BRANCH   3   4
ATOM      4  C   UNL     1      48.392  55.151  19.918  1.00  0.00    -0.003 C 
ATOM      5  C   UNL     1      48.789  54.294  18.726  1.00  0.00    +0.004 C 
ENDBRANCH   3   4
ENDBRANCH   2   3
ENDBRANCH   1   2
BRANCH   1   6
ATOM      6  C   UNL     1      50.652  57.550  20.948  1.00  0.00    +0.030 C 
BRANCH   6   7
ATOM      7  C   UNL     1      51.768  56.752  21.660  1.00  0.00    +0.136 C 
BRANCH   7   8
ATOM      8  C   UNL     1      53.126  57.493  21.724  1.00  0.00    +0.136 C 
ATOM      9  C   UNL     1      53.011  59.012  21.621  1.00  0.00    +0.040 C 
BRANCH   8  10
ATOM     10  O   UNL     1      53.863  57.137  22.898  1.00  0.00    -0.391 OA
ATOM     11  H   UNL     1      54.316  56.290  22.733  1.00  0.00    +0.211 HD
ENDBRANCH   8  10
ENDBRANCH   7   8
BRANCH   7  12
ATOM     12  N   UNL     1      51.902  55.418  21.064  1.00  0.00    -0.264 N 
ATOM     13  C   UNL     1      51.623  54.211  21.655  1.00  0.00    +0.123 A 
ATOM     14  N   UNL     1      52.328  55.315  19.781  1.00  0.00    -0.152 NA
ATOM     15  C   UNL     1      51.889  53.280  20.686  1.00  0.00    +0.081 A 
ATOM     16  C   UNL     1      52.317  54.000  19.544  1.00  0.00    +0.186 A 
ATOM     17  C   UNL     1      51.765  51.896  20.753  1.00  0.00    +0.137 A 
ATOM     18  N   UNL     1      52.652  53.374  18.393  1.00  0.00    -0.215 NA
ATOM     19  N   UNL     1      52.105  51.271  19.599  1.00  0.00    -0.219 NA
ATOM     20  C   UNL     1      52.510  52.028  18.525  1.00  0.00    +0.226 A 
BRANCH  17  21
ATOM     21  N   UNL     1      51.359  51.146  21.842  1.00  0.00    -0.383 N 
ATOM     22  H   UNL     1      51.142  50.194  21.570  1.00  0.00    +0.158 HD
ATOM     23  H   UNL     1      51.921  51.256  22.675  1.00  0.00    +0.158 HD
ENDBRANCH  17  21
ENDBRANCH   7  12
ENDBRANCH   6   7
ENDBRANCH   1   6
TORSDOF 9
ENDMDL
MODEL 2
REMARK VINA RESULT:    -6.875      1.574      2.433
REMARK INTER + INTRA:         -11.189
REMARK INTER:                 -10.215
REMARK INTRA:                  -0.974
REMARK UNBOUND:                -1.098
REMARK SMILES CCCCCCC(C(C)O)n1cc2c(N)ncnc2n1
REMARK SMILES IDX 5 1 4 2 3 3 2 4 1 5 6 6 7 7 8 8 9 9 10 10 11 12 12 13 20 14
REMARK SMILES IDX 13 15 19 16 14 17 18 18 16 19 17 20 15 21
REMARK H PARENT 10 11 15 22 15 23
ROOT
ATOM      1  C   UNL     1      48.980  57.895  21.730  1.00  0.00    +0.002 C 
ENDROOT
BRANCH   1   2
ATOM      2  C   UNL     1      47.806  58.168  20.785  1.00  0.00    +0.000 C 
BRANCH   2   3
ATOM      3  C   UNL     1      48.183  57.874  19.332  1.00  0.00    -0.000 C 
BRANCH   3   4
ATOM      4  C   UNL     1      47.364  58.676  18.318  1.00  0.00    -0.003 C 
ATOM      5  C   UNL     1      47.664  60.166  18.337  1.00  0.00    +0.004 C 
ENDBRANCH   3   4
ENDBRANCH   2   3
ENDBRANCH   1   2
BRANCH   1   6
ATOM      6  C   UNL     1      50.251  57.550  20.949  1.00  0.00    +0.030 C 
BRANCH   6   7
ATOM      7  C   UNL     1      51.261  56.712  21.765  1.00  0.00    +0.136 C 
BRANCH   7   8
ATOM      8  C   UNL     1      52.714  57.241  21.701  1.00  0.00    +0.136 C 
ATOM      9  C   UNL     1      52.817  58.748  21.471  1.00  0.00    +0.040 C 
BRANCH   8  10
ATOM     10  O   UNL     1      53.459  56.872  22.865  1.00  0.00    -0.391 OA
ATOM     11  H   UNL     1      54.143  57.549  23.021  1.00  0.00    +0.211 HD
ENDBRANCH   8  10
ENDBRANCH   7   8
BRANCH   7  12
ATOM     12  N   UNL     1      51.178  55.298  21.382  1.00  0.00    -0.264 N 
ATOM     13  C   UNL     1      50.540  54.769  20.288  1.00  0.00    +0.123 A 
ATOM     14  N   UNL     1      51.798  54.373  22.155  1.00  0.00    -0.152 NA
ATOM     15  C   UNL     1      50.771  53.421  20.369  1.00  0.00    +0.081 A 
ATOM     16  C   UNL     1      51.554  53.217  21.532  1.00  0.00    +0.186 A 
ATOM     17  C   UNL     1      50.358  52.414  19.503  1.00  0.00    +0.137 A 
ATOM     18  N   UNL     1      51.970  51.985  21.903  1.00  0.00    -0.215 NA
ATOM     19  N   UNL     1      50.773  51.179  19.879  1.00  0.00    -0.219 NA
ATOM     20  C   UNL     1      51.533  51.049  21.018  1.00  0.00    +0.226 A 
BRANCH  17  21
ATOM     21  N   UNL     1      49.589  52.558  18.362  1.00  0.00    -0.383 N 
ATOM     22  H   UNL     1      50.088  53.078  17.649  1.00  0.00    +0.158 HD
ATOM     23  H   UNL     1      49.113  51.721  18.055  1.00  0.00    +0.158 HD
ENDBRANCH  17  21
ENDBRANCH   7  12
ENDBRANCH   6   7
ENDBRANCH   1   6
TORSDOF 9
ENDMDL
MODEL 3
REMARK VINA RESULT:    -6.866      4.928      7.184
REMARK INTER + INTRA:         -11.174
REMARK INTER:                 -10.014
REMARK INTRA:                  -1.160
REMARK UNBOUND:                -1.098
REMARK SMILES CCCCCCC(C(C)O)n1cc2c(N)ncnc2n1
REMARK SMILES IDX 5 1 4 2 3 3 2 4 1 5 6 6 7 7 8 8 9 9 10 10 11 12 12 13 20 14
REMARK SMILES IDX 13 15 19 16 14 17 18 18 16 19 17 20 15 21
REMARK H PARENT 10 11 15 22 15 23
ROOT
ATOM      1  C   UNL     1      47.155  48.553  18.584  1.00  0.00    +0.002 C 
ENDROOT
BRANCH   1   2
ATOM      2  C   UNL     1      46.202  49.310  17.654  1.00  0.00    +0.000 C 
BRANCH   2   3
ATOM      3  C   UNL     1      44.844  48.610  17.563  1.00  0.00    -0.000 C 
BRANCH   3   4
ATOM      4  C   UNL     1      44.646  47.839  16.256  1.00  0.00    -0.003 C 
ATOM      5  C   UNL     1      45.701  48.145  15.204  1.00  0.00    +0.004 C 
ENDBRANCH   3   4
ENDBRANCH   2   3
ENDBRANCH   1   2
BRANCH   1   6
ATOM      6  C   UNL     1      48.586  48.562  18.039  1.00  0.00    +0.030 C 
BRANCH   6   7
ATOM      7  C   UNL     1      48.943  49.862  17.283  1.00  0.00    +0.136 C 
BRANCH   7   8
ATOM      8  C   UNL     1      49.696  49.627  15.951  1.00  0.00    +0.136 C 
ATOM      9  C   UNL     1      48.879  49.969  14.706  1.00  0.00    +0.040 C 
BRANCH   8  10
ATOM     10  O   UNL     1      50.944  50.325  15.923  1.00  0.00    -0.391 OA
ATOM     11  H   UNL     1      50.924  51.021  16.606  1.00  0.00    +0.211 HD
ENDBRANCH   8  10
ENDBRANCH   7   8
BRANCH   7  12
ATOM     12  N   UNL     1      49.668  50.783  18.165  1.00  0.00    -0.264 N 
ATOM     13  C   UNL     1      50.360  50.468  19.308  1.00  0.00    +0.123 A 
ATOM     14  N   UNL     1      49.702  52.100  17.850  1.00  0.00    -0.152 NA
ATOM     15  C   UNL     1      50.867  51.662  19.747  1.00  0.00    +0.081 A 
ATOM     16  C   UNL     1      50.443  52.644  18.818  1.00  0.00    +0.186 A 
ATOM     17  C   UNL     1      51.659  51.913  20.863  1.00  0.00    +0.137 A 
ATOM     18  N   UNL     1      50.785  53.946  18.955  1.00  0.00    -0.215 NA
ATOM     19  N   UNL     1      51.997  53.219  20.998  1.00  0.00    -0.219 NA
ATOM     20  C   UNL     1      51.555  54.123  20.061  1.00  0.00    +0.226 A 
BRANCH  17  21
ATOM     21  N   UNL     1      52.094  50.994  21.801  1.00  0.00    -0.383 N 
ATOM     22  H   UNL     1      51.718  50.072  21.611  1.00  0.00    +0.158 HD
ATOM     23  H   UNL     1      53.079  51.039  22.024  1.00  0.00    +0.158 HD
ENDBRANCH  17  21
ENDBRANCH   7  12
ENDBRANCH   6   7
ENDBRANCH   1   6
TORSDOF 9
ENDMDL
MODEL 4
REMARK VINA RESULT:    -6.463      3.247      6.035
REMARK INTER + INTRA:         -10.583
REMARK INTER:                  -9.677
REMARK INTRA:                  -0.906
REMARK UNBOUND:                -1.098
REMARK SMILES CCCCCCC(C(C)O)n1cc2c(N)ncnc2n1
REMARK SMILES IDX 5 1 4 2 3 3 2 4 1 5 6 6 7 7 8 8 9 9 10 10 11 12 12 13 20 14
REMARK SMILES IDX 13 15 19 16 14 17 18 18 16 19 17 20 15 21
REMARK H PARENT 10 11 15 22 15 23
ROOT
ATOM      1  C   UNL     1      50.185  49.348  19.754  1.00  0.00    +0.002 C 
ENDROOT
BRANCH   1   2
ATOM      2  C   UNL     1      49.128  49.805  18.744  1.00  0.00    +0.000 C 
BRANCH   2   3
ATOM      3  C   UNL     1      48.420  48.610  18.103  1.00  0.00    -0.000 C 
BRANCH   3   4
ATOM      4  C   UNL     1      46.900  48.642  18.274  1.00  0.00    -0.003 C 
ATOM      5  C   UNL     1      46.213  49.682  17.402  1.00  0.00    +0.004 C 
ENDBRANCH   3   4
ENDBRANCH   2   3
ENDBRANCH   1   2
BRANCH   1   6
ATOM      6  C   UNL     1      51.005  50.533  20.273  1.00  0.00    +0.030 C 
BRANCH   6   7
ATOM      7  C   UNL     1      51.121  51.688  19.254  1.00  0.00    +0.136 C 
BRANCH   7   8
ATOM      8  C   UNL     1      52.395  51.626  18.376  1.00  0.00    +0.136 C 
ATOM      9  C   UNL     1      52.262  50.722  17.152  1.00  0.00    +0.040 C 
BRANCH   8  10
ATOM     10  O   UNL     1      52.821  52.931  17.975  1.00  0.00    -0.391 OA
ATOM     11  H   UNL     1      52.034  53.457  17.747  1.00  0.00    +0.211 HD
ENDBRANCH   8  10
ENDBRANCH   7   8
BRANCH   7  12
ATOM     12  N   UNL     1      50.989  52.983  19.932  1.00  0.00    -0.264 N 
ATOM     13  C   UNL     1      49.998  53.916  19.757  1.00  0.00    +0.123 A 
ATOM     14  N   UNL     1      51.916  53.335  20.856  1.00  0.00    -0.152 NA
ATOM     15  C   UNL     1      50.314  54.926  20.627  1.00  0.00    +0.081 A 
ATOM     16  C   UNL     1      51.502  54.528  21.289  1.00  0.00    +0.186 A 
ATOM     17  C   UNL     1      49.633  56.115  20.862  1.00  0.00    +0.137 A 
ATOM     18  N   UNL     1      52.084  55.304  22.231  1.00  0.00    -0.215 NA
ATOM     19  N   UNL     1      50.221  56.892  21.805  1.00  0.00    -0.219 NA
ATOM     20  C   UNL     1      51.372  56.448  22.413  1.00  0.00    +0.226 A 
BRANCH  17  21
ATOM     21  N   UNL     1      48.477  56.553  20.240  1.00  0.00    -0.383 N 
ATOM     22  H   UNL     1      48.654  56.796  19.271  1.00  0.00    +0.158 HD
ATOM     23  H   UNL     1      47.654  55.996  20.419  1.00  0.00    +0.158 HD
ENDBRANCH  17  21
ENDBRANCH   7  12
ENDBRANCH   6   7
ENDBRANCH   1   6
TORSDOF 9
ENDMDL
MODEL 5
REMARK VINA RESULT:    -6.212      2.874      4.740
REMARK INTER + INTRA:         -10.215
REMARK INTER:                  -9.089
REMARK INTRA:                  -1.126
REMARK UNBOUND:                -1.098
REMARK SMILES CCCCCCC(C(C)O)n1cc2c(N)ncnc2n1
REMARK SMILES IDX 5 1 4 2 3 3 2 4 1 5 6 6 7 7 8 8 9 9 10 10 11 12 12 13 20 14
REMARK SMILES IDX 13 15 19 16 14 17 18 18 16 19 17 20 15 21
REMARK H PARENT 10 11 15 22 15 23
ROOT
ATOM      1  C   UNL     1      47.283  53.053  16.832  1.00  0.00    +0.002 C 
ENDROOT
BRANCH   1   2
ATOM      2  C   UNL     1      47.843  51.709  16.355  1.00  0.00    +0.000 C 
BRANCH   2   3
ATOM      3  C   UNL     1      47.707  50.637  17.438  1.00  0.00    -0.000 C 
BRANCH   3   4
ATOM      4  C   UNL     1      48.810  49.577  17.383  1.00  0.00    -0.003 C 
ATOM      5  C   UNL     1      49.016  48.847  18.701  1.00  0.00    +0.004 C 
ENDBRANCH   3   4
ENDBRANCH   2   3
ENDBRANCH   1   2
BRANCH   1   6
ATOM      6  C   UNL     1      48.398  54.087  17.010  1.00  0.00    +0.030 C 
BRANCH   6   7
ATOM      7  C   UNL     1      48.684  54.429  18.489  1.00  0.00    +0.136 C 
BRANCH   7   8
ATOM      8  C   UNL     1      49.056  55.912  18.731  1.00  0.00    +0.136 C 
ATOM      9  C   UNL     1      48.197  56.603  19.789  1.00  0.00    +0.040 C 
BRANCH   8  10
ATOM     10  O   UNL     1      50.441  56.061  19.053  1.00  0.00    -0.391 OA
ATOM     11  H   UNL     1      50.634  57.010  19.157  1.00  0.00    +0.211 HD
ENDBRANCH   8  10
ENDBRANCH   7   8
BRANCH   7  12
ATOM     12  N   UNL     1      49.694  53.517  19.038  1.00  0.00    -0.264 N 
ATOM     13  C   UNL     1      50.517  52.670  18.339  1.00  0.00    +0.123 A 
ATOM     14  N   UNL     1      49.883  53.482  20.380  1.00  0.00    -0.152 NA
ATOM     15  C   UNL     1      51.281  52.059  19.298  1.00  0.00    +0.081 A 
ATOM     16  C   UNL     1      50.863  52.589  20.543  1.00  0.00    +0.186 A 
ATOM     17  C   UNL     1      52.288  51.113  19.135  1.00  0.00    +0.137 A 
ATOM     18  N   UNL     1      51.429  52.200  21.708  1.00  0.00    -0.215 NA
ATOM     19  N   UNL     1      52.851  50.722  20.305  1.00  0.00    -0.219 NA
ATOM     20  C   UNL     1      52.402  51.277  21.480  1.00  0.00    +0.226 A 
BRANCH  17  21
ATOM     21  N   UNL     1      52.729  50.559  17.946  1.00  0.00    -0.383 N 
ATOM     22  H   UNL     1      53.511  51.081  17.568  1.00  0.00    +0.158 HD
ATOM     23  H   UNL     1      52.821  49.553  17.948  1.00  0.00    +0.158 HD
ENDBRANCH  17  21
ENDBRANCH   7  12
ENDBRANCH   6   7
ENDBRANCH   1   6
TORSDOF 9
ENDMDL
