MODEL 1
REMARK VINA RESULT:    -6.825      0.000      0.000
REMARK INTER + INTRA:         -12.271
REMARK INTER:                 -11.014
REMARK INTRA:                  -1.257
REMARK UNBOUND:                -1.257
REMARK SMILES CCCCCCCCCCCn1cc2c(N)ncnc2n1
REMARK SMILES IDX 7 1 6 2 5 3 4 4 3 5 2 6 1 7 8 8 9 9 10 10 11 11 12 12 13 13
REMARK SMILES IDX 21 14 14 15 20 16 15 17 19 18 17 19 18 20 16 21
REMARK H PARENT 16 22 16 23
ROOT
ATOM      1  C   UNL     1      48.941  56.545  19.601  1.00  0.00    +0.000 C 
ENDROOT
BRANCH   1   2
ATOM      2  C   UNL     1      48.604  55.057  19.455  1.00  0.00    +0.000 C 
BRANCH   2   3
ATOM      3  C   UNL     1      49.006  54.408  18.127  1.00  0.00    -0.000 C 
BRANCH   3   4
ATOM      4  C   UNL     1      48.091  53.284  17.633  1.00  0.00    -0.000 C 
BRANCH   4   5
ATOM      5  C   UNL     1      48.716  51.886  17.602  1.00  0.00    -0.000 C 
BRANCH   5   6
ATOM      6  C   UNL     1      48.048  50.944  16.598  1.00  0.00    -0.003 C 
ATOM      7  C   UNL     1      46.880  50.201  17.228  1.00  0.00    +0.004 C 
ENDBRANCH   5   6
ENDBRANCH   4   5
ENDBRANCH   3   4
ENDBRANCH   2   3
ENDBRANCH   1   2
BRANCH   1   8
ATOM      8  C   UNL     1      48.464  57.148  20.925  1.00  0.00    +0.000 C 
BRANCH   8   9
ATOM      9  C   UNL     1      49.608  57.656  21.809  1.00  0.00    +0.002 C 
BRANCH   9  10
ATOM     10  C   UNL     1      51.021  57.273  21.361  1.00  0.00    +0.024 C 
BRANCH  10  11
ATOM     11  C   UNL     1      51.627  56.135  22.180  1.00  0.00    +0.144 C 
BRANCH  11  12
ATOM     12  N   UNL     1      51.803  54.931  21.383  1.00  0.00    -0.270 N 
ATOM     13  C   UNL     1      51.609  53.643  21.806  1.00  0.00    +0.123 A 
ATOM     14  N   UNL     1      52.199  55.041  20.096  1.00  0.00    -0.152 NA
ATOM     15  C   UNL     1      51.889  52.876  20.705  1.00  0.00    +0.081 A 
ATOM     16  C   UNL     1      52.243  53.777  19.668  1.00  0.00    +0.186 A 
ATOM     17  C   UNL     1      51.841  51.492  20.573  1.00  0.00    +0.137 A 
ATOM     18  N   UNL     1      52.575  53.341  18.431  1.00  0.00    -0.215 NA
ATOM     19  N   UNL     1      52.175  51.060  19.333  1.00  0.00    -0.219 NA
ATOM     20  C   UNL     1      52.507  51.984  18.371  1.00  0.00    +0.226 A 
BRANCH  17  21
ATOM     21  N   UNL     1      51.513  50.570  21.552  1.00  0.00    -0.383 N 
ATOM     22  H   UNL     1      50.786  50.928  22.161  1.00  0.00    +0.158 HD
ATOM     23  H   UNL     1      51.401  49.620  21.230  1.00  0.00    +0.158 HD
ENDBRANCH  17  21
ENDBRANCH  11  12
ENDBRANCH  10  11
ENDBRANCH   9  10
ENDBRANCH   8   9
ENDBRANCH   1   8
TORSDOF 11
ENDMDL
MODEL 2
REMARK VINA RESULT:    -6.804      3.199      5.410
REMARK INTER + INTRA:         -12.237
REMARK INTER:                 -11.716
REMARK INTRA:                  -0.521
REMARK UNBOUND:                -1.257
REMARK SMILES CCCCCCCCCCCn1cc2c(N)ncnc2n1
REMARK SMILES IDX 7 1 6 2 5 3 4 4 3 5 2 6 1 7 8 8 9 9 10 10 11 11 12 12 13 13
REMARK SMILES IDX 21 14 14 15 20 16 15 17 19 18 17 19 18 20 16 21
REMARK H PARENT 16 22 16 23
ROOT
ATOM      1  C   UNL     1      47.517  58.618  20.369  1.00  0.00    +0.000 C 
ENDROOT
BRANCH   1   2
ATOM      2  C   UNL     1      47.460  59.538  19.144  1.00  0.00    +0.000 C 
BRANCH   2   3
ATOM      3  C   UNL     1      46.316  60.557  19.128  1.00  0.00    -0.000 C 
BRANCH   3   4
ATOM      4  C   UNL     1      46.682  61.972  19.584  1.00  0.00    -0.000 C 
BRANCH   4   5
ATOM      5  C   UNL     1      45.506  62.937  19.762  1.00  0.00    -0.000 C 
BRANCH   5   6
ATOM      6  C   UNL     1      44.350  62.671  18.797  1.00  0.00    -0.003 C 
ATOM      7  C   UNL     1      43.108  62.201  19.538  1.00  0.00    +0.004 C 
ENDBRANCH   5   6
ENDBRANCH   4   5
ENDBRANCH   3   4
ENDBRANCH   2   3
ENDBRANCH   1   2
BRANCH   1   8
ATOM      8  C   UNL     1      48.658  57.600  20.311  1.00  0.00    +0.000 C 
BRANCH   8   9
ATOM      9  C   UNL     1      49.362  57.397  21.658  1.00  0.00    +0.002 C 
BRANCH   9  10
ATOM     10  C   UNL     1      50.890  57.473  21.633  1.00  0.00    +0.024 C 
BRANCH  10  11
ATOM     11  C   UNL     1      51.564  56.343  22.408  1.00  0.00    +0.144 C 
BRANCH  11  12
ATOM     12  N   UNL     1      51.777  55.169  21.577  1.00  0.00    -0.270 N 
ATOM     13  C   UNL     1      51.725  53.863  21.988  1.00  0.00    +0.123 A 
ATOM     14  N   UNL     1      52.060  55.329  20.266  1.00  0.00    -0.152 NA
ATOM     15  C   UNL     1      51.981  53.138  20.854  1.00  0.00    +0.081 A 
ATOM     16  C   UNL     1      52.176  54.079  19.810  1.00  0.00    +0.186 A 
ATOM     17  C   UNL     1      52.038  51.756  20.697  1.00  0.00    +0.137 A 
ATOM     18  N   UNL     1      52.445  53.690  18.543  1.00  0.00    -0.215 NA
ATOM     19  N   UNL     1      52.309  51.371  19.426  1.00  0.00    -0.219 NA
ATOM     20  C   UNL     1      52.485  52.333  18.461  1.00  0.00    +0.226 A 
BRANCH  17  21
ATOM     21  N   UNL     1      51.867  50.797  21.680  1.00  0.00    -0.383 N 
ATOM     22  H   UNL     1      51.066  50.209  21.479  1.00  0.00    +0.158 HD
ATOM     23  H   UNL     1      52.709  50.324  21.974  1.00  0.00    +0.158 HD
ENDBRANCH  17  21
ENDBRANCH  11  12
ENDBRANCH  10  11
ENDBRANCH   9  10
ENDBRANCH   8   9
ENDBRANCH   1   8
TORSDOF 11
ENDMDL
MODEL 3
REMARK VINA RESULT:    -6.667      1.022      2.078
REMARK INTER + INTRA:         -12.016
REMARK INTER:                 -10.787
REMARK INTRA:                  -1.229
REMARK UNBOUND:                -1.257
REMARK SMILES CCCCCCCCCCCn1cc2c(N)ncnc2n1
REMARK SMILES IDX 7 1 6 2 5 3 4 4 3 5 2 6 1 7 8 8 9 9 10 10 11 11 12 12 13 13
REMARK SMILES IDX 21 14 14 15 20 16 15 17 19 18 17 19 18 20 16 21
REMARK H PARENT 16 22 16 23
ROOT
ATOM      1  C   UNL     1      47.782  57.182  20.609  1.00  0.00    +0.000 C 
ENDROOT
BRANCH   1   2
ATOM      2  C   UNL     1      48.307  56.313  19.461  1.00  0.00    +0.000 C 
BRANCH   2   3
ATOM      3  C   UNL     1      48.768  54.904  19.848  1.00  0.00    -0.000 C 
BRANCH   3   4
ATOM      4  C   UNL     1      48.703  53.856  18.733  1.00  0.00    -0.000 C 
BRANCH   4   5
ATOM      5  C   UNL     1      48.370  54.391  17.337  1.00  0.00    -0.000 C 
BRANCH   5   6
ATOM      6  C   UNL     1      47.858  53.314  16.379  1.00  0.00    -0.003 C 
ATOM      7  C   UNL     1      47.381  52.084  17.135  1.00  0.00    +0.004 C 
ENDBRANCH   5   6
ENDBRANCH   4   5
ENDBRANCH   3   4
ENDBRANCH   2   3
ENDBRANCH   1   2
BRANCH   1   8
ATOM      8  C   UNL     1      48.894  57.845  21.426  1.00  0.00    +0.000 C 
BRANCH   8   9
ATOM      9  C   UNL     1      50.254  57.839  20.720  1.00  0.00    +0.002 C 
BRANCH   9  10
ATOM     10  C   UNL     1      51.433  57.313  21.541  1.00  0.00    +0.024 C 
BRANCH  10  11
ATOM     11  C   UNL     1      52.535  56.690  20.687  1.00  0.00    +0.144 C 
BRANCH  11  12
ATOM     12  N   UNL     1      52.362  55.253  20.545  1.00  0.00    -0.270 N 
ATOM     13  C   UNL     1      52.567  54.518  19.407  1.00  0.00    +0.123 A 
ATOM     14  N   UNL     1      51.957  54.527  21.611  1.00  0.00    -0.152 NA
ATOM     15  C   UNL     1      52.284  53.230  19.777  1.00  0.00    +0.081 A 
ATOM     16  C   UNL     1      51.918  53.275  21.146  1.00  0.00    +0.186 A 
ATOM     17  C   UNL     1      52.340  52.070  19.009  1.00  0.00    +0.137 A 
ATOM     18  N   UNL     1      51.581  52.158  21.830  1.00  0.00    -0.215 NA
ATOM     19  N   UNL     1      52.001  50.953  19.697  1.00  0.00    -0.219 NA
ATOM     20  C   UNL     1      51.657  51.065  21.023  1.00  0.00    +0.226 A 
BRANCH  17  21
ATOM     21  N   UNL     1      52.681  51.971  17.671  1.00  0.00    -0.383 N 
ATOM     22  H   UNL     1      53.687  51.982  17.549  1.00  0.00    +0.158 HD
ATOM     23  H   UNL     1      52.172  51.274  17.146  1.00  0.00    +0.158 HD
ENDBRANCH  17  21
ENDBRANCH  11  12
ENDBRANCH  10  11
ENDBRANCH   9  10
ENDBRANCH   8   9
ENDBRANCH   1   8
TORSDOF 11
ENDMDL
MODEL 4
REMARK VINA RESULT:    -6.457      2.408      5.497
REMARK INTER + INTRA:         -11.678
REMARK INTER:                 -10.527
REMARK INTRA:                  -1.151
REMARK UNBOUND:                -1.257
REMARK SMILES CCCCCCCCCCCn1cc2c(N)ncnc2n1
REMARK SMILES IDX 7 1 6 2 5 3 4 4 3 5 2 6 1 7 8 8 9 9 10 10 11 11 12 12 13 13
REMARK SMILES IDX 21 14 14 15 20 16 15 17 19 18 17 19 18 20 16 21
REMARK H PARENT 16 22 16 23
ROOT
ATOM      1  C   UNL     1      51.718  54.186  21.282  1.00  0.00    +0.000 C 
ENDROOT
BRANCH   1   2
ATOM      2  C   UNL     1      51.607  55.256  22.374  1.00  0.00    +0.000 C 
BRANCH   2   3
ATOM      3  C   UNL     1      51.485  56.702  21.882  1.00  0.00    -0.000 C 
BRANCH   3   4
ATOM      4  C   UNL     1      50.071  57.290  21.895  1.00  0.00    -0.000 C 
BRANCH   4   5
ATOM      5  C   UNL     1      49.416  57.475  20.523  1.00  0.00    -0.000 C 
BRANCH   5   6
ATOM      6  C   UNL     1      48.187  56.590  20.312  1.00  0.00    -0.003 C 
ATOM      7  C   UNL     1      48.551  55.297  19.600  1.00  0.00    +0.004 C 
ENDBRANCH   5   6
ENDBRANCH   4   5
ENDBRANCH   3   4
ENDBRANCH   2   3
ENDBRANCH   1   2
BRANCH   1   8
ATOM      8  C   UNL     1      50.790  52.990  21.507  1.00  0.00    +0.000 C 
BRANCH   8   9
ATOM      9  C   UNL     1      51.538  51.665  21.689  1.00  0.00    +0.002 C 
BRANCH   9  10
ATOM     10  C   UNL     1      52.475  51.263  20.547  1.00  0.00    +0.024 C 
BRANCH  10  11
ATOM     11  C   UNL     1      52.112  49.923  19.911  1.00  0.00    +0.144 C 
BRANCH  11  12
ATOM     12  N   UNL     1      50.887  50.008  19.132  1.00  0.00    -0.270 N 
ATOM     13  C   UNL     1      49.743  49.282  19.335  1.00  0.00    +0.123 A 
ATOM     14  N   UNL     1      50.823  50.870  18.093  1.00  0.00    -0.152 NA
ATOM     15  C   UNL     1      48.883  49.722  18.364  1.00  0.00    +0.081 A 
ATOM     16  C   UNL     1      49.584  50.707  17.621  1.00  0.00    +0.186 A 
ATOM     17  C   UNL     1      47.571  49.326  18.117  1.00  0.00    +0.137 A 
ATOM     18  N   UNL     1      49.012  51.354  16.580  1.00  0.00    -0.215 NA
ATOM     19  N   UNL     1      47.002  49.976  17.073  1.00  0.00    -0.219 NA
ATOM     20  C   UNL     1      47.735  50.922  16.395  1.00  0.00    +0.226 A 
BRANCH  17  21
ATOM     21  N   UNL     1      46.846  48.367  18.802  1.00  0.00    -0.383 N 
ATOM     22  H   UNL     1      46.183  47.905  18.190  1.00  0.00    +0.158 HD
ATOM     23  H   UNL     1      47.387  47.770  19.410  1.00  0.00    +0.158 HD
ENDBRANCH  17  21
ENDBRANCH  11  12
ENDBRANCH  10  11
ENDBRANCH   9  10
ENDBRANCH   8   9
ENDBRANCH   1   8
TORSDOF 11
ENDMDL
MODEL 5
REMARK VINA RESULT:    -6.179      2.081      4.691
REMARK INTER + INTRA:         -11.229
REMARK INTER:                  -9.886
REMARK INTRA:                  -1.343
REMARK UNBOUND:                -1.257
REMARK SMILES CCCCCCCCCCCn1cc2c(N)ncnc2n1
REMARK SMILES IDX 7 1 6 2 5 3 4 4 3 5 2 6 1 7 8 8 9 9 10 10 11 11 12 12 13 13
REMARK SMILES IDX 21 14 14 15 20 16 15 17 19 18 17 19 18 20 16 21
REMARK H PARENT 16 22 16 23
ROOT
ATOM      1  C   UNL     1      51.749  56.396  21.033  1.00  0.00    +0.000 C 
ENDROOT
BRANCH   1   2
ATOM      2  C   UNL     1      50.611  56.650  22.027  1.00  0.00    +0.000 C 
BRANCH   2   3
ATOM      3  C   UNL     1      49.700  57.840  21.710  1.00  0.00    -0.000 C 
BRANCH   3   4
ATOM      4  C   UNL     1      48.525  57.545  20.772  1.00  0.00    -0.000 C 
BRANCH   4   5
ATOM      5  C   UNL     1      48.428  56.103  20.264  1.00  0.00    -0.000 C 
BRANCH   5   6
ATOM      6  C   UNL     1      48.790  55.954  18.786  1.00  0.00    -0.003 C 
ATOM      7  C   UNL     1      48.678  54.507  18.331  1.00  0.00    +0.004 C 
ENDBRANCH   5   6
ENDBRANCH   4   5
ENDBRANCH   3   4
ENDBRANCH   2   3
ENDBRANCH   1   2
BRANCH   1   8
ATOM      8  C   UNL     1      51.982  54.911  20.743  1.00  0.00    +0.000 C 
BRANCH   8   9
ATOM      9  C   UNL     1      51.223  53.980  21.694  1.00  0.00    +0.002 C 
BRANCH   9  10
ATOM     10  C   UNL     1      51.773  52.556  21.817  1.00  0.00    +0.024 C 
BRANCH  10  11
ATOM     11  C   UNL     1      52.406  52.039  20.528  1.00  0.00    +0.144 C 
BRANCH  11  12
ATOM     12  N   UNL     1      51.454  51.298  19.717  1.00  0.00    -0.270 N 
ATOM     13  C   UNL     1      50.901  51.712  18.533  1.00  0.00    +0.123 A 
ATOM     14  N   UNL     1      51.040  50.080  20.129  1.00  0.00    -0.152 NA
ATOM     15  C   UNL     1      50.085  50.677  18.158  1.00  0.00    +0.081 A 
ATOM     16  C   UNL     1      50.203  49.686  19.166  1.00  0.00    +0.186 A 
ATOM     17  C   UNL     1      49.288  50.563  17.022  1.00  0.00    +0.137 A 
ATOM     18  N   UNL     1      49.524  48.518  19.097  1.00  0.00    -0.215 NA
ATOM     19  N   UNL     1      48.609  49.392  16.958  1.00  0.00    -0.219 NA
ATOM     20  C   UNL     1      48.769  48.472  17.967  1.00  0.00    +0.226 A 
BRANCH  17  21
ATOM     21  N   UNL     1      49.130  51.500  16.017  1.00  0.00    -0.383 N 
ATOM     22  H   UNL     1      50.016  51.716  15.575  1.00  0.00    +0.158 HD
ATOM     23  H   UNL     1      48.347  51.342  15.398  1.00  0.00    +0.158 HD
ENDBRANCH  17  21
ENDBRANCH  11  12
ENDBRANCH  10  11
ENDBRANCH   9  10
ENDBRANCH   8   9
ENDBRANCH   1   8
TORSDOF 11
ENDMDL
