MODEL 1
REMARK VINA RESULT:    -6.868      0.000      0.000
REMARK INTER + INTRA:         -11.123
REMARK INTER:                 -10.080
REMARK INTRA:                  -1.043
REMARK UNBOUND:                -1.043
REMARK SMILES CCCCCCC(O)Cn1cc2c(N)ncnc2n1
REMARK SMILES IDX 6 1 5 2 4 3 3 4 2 5 1 6 7 7 8 8 9 10 10 11 11 12 19 13 12 14
REMARK SMILES IDX 18 15 13 16 17 17 15 18 16 19 14 20
REMARK H PARENT 8 9 14 21 14 22
ROOT
ATOM      1  C   UNL     1      51.025  58.045  21.231  1.00  0.00    +0.034 C 
ENDROOT
BRANCH   1   2
ATOM      2  C   UNL     1      49.722  57.733  21.968  1.00  0.00    +0.003 C 
BRANCH   2   3
ATOM      3  C   UNL     1      48.540  57.472  21.028  1.00  0.00    +0.000 C 
BRANCH   3   4
ATOM      4  C   UNL     1      48.919  56.678  19.775  1.00  0.00    -0.000 C 
BRANCH   4   5
ATOM      5  C   UNL     1      48.581  55.195  19.937  1.00  0.00    -0.003 C 
ATOM      6  C   UNL     1      48.837  54.422  18.653  1.00  0.00    +0.004 C 
ENDBRANCH   4   5
ENDBRANCH   3   4
ENDBRANCH   2   3
ENDBRANCH   1   2
BRANCH   1   7
ATOM      7  C   UNL     1      52.188  57.121  21.621  1.00  0.00    +0.136 C 
BRANCH   7   8
ATOM      8  O   UNL     1      53.029  57.875  22.508  1.00  0.00    -0.391 OA
ATOM      9  H   UNL     1      52.523  58.665  22.775  1.00  0.00    +0.211 HD
ENDBRANCH   7   8
BRANCH   7  10
ATOM     10  C   UNL     1      51.716  55.848  22.332  1.00  0.00    +0.176 C 
BRANCH  10  11
ATOM     11  N   UNL     1      51.846  54.671  21.487  1.00  0.00    -0.267 N 
ATOM     12  C   UNL     1      51.637  53.369  21.865  1.00  0.00    +0.123 A 
ATOM     13  N   UNL     1      52.202  54.822  20.192  1.00  0.00    -0.152 NA
ATOM     14  C   UNL     1      51.864  52.641  20.727  1.00  0.00    +0.081 A 
ATOM     15  C   UNL     1      52.203  53.574  19.715  1.00  0.00    +0.186 A 
ATOM     16  C   UNL     1      51.783  51.264  20.543  1.00  0.00    +0.137 A 
ATOM     17  N   UNL     1      52.490  53.181  18.453  1.00  0.00    -0.215 NA
ATOM     18  N   UNL     1      52.072  50.875  19.278  1.00  0.00    -0.219 NA
ATOM     19  C   UNL     1      52.391  51.828  18.340  1.00  0.00    +0.226 A 
BRANCH  16  20
ATOM     20  N   UNL     1      51.467  50.313  21.495  1.00  0.00    -0.383 N 
ATOM     21  H   UNL     1      52.240  49.755  21.829  1.00  0.00    +0.158 HD
ATOM     22  H   UNL     1      50.620  49.812  21.251  1.00  0.00    +0.158 HD
ENDBRANCH  16  20
ENDBRANCH  10  11
ENDBRANCH   7  10
ENDBRANCH   1   7
TORSDOF 9
ENDMDL
MODEL 2
REMARK VINA RESULT:    -6.490      2.087      2.738
REMARK INTER + INTRA:         -10.568
REMARK INTER:                  -9.977
REMARK INTRA:                  -0.591
REMARK UNBOUND:                -1.043
REMARK SMILES CCCCCCC(O)Cn1cc2c(N)ncnc2n1
REMARK SMILES IDX 6 1 5 2 4 3 3 4 2 5 1 6 7 7 8 8 9 10 10 11 11 12 19 13 12 14
REMARK SMILES IDX 18 15 13 16 17 17 15 18 16 19 14 20
REMARK H PARENT 8 9 14 21 14 22
ROOT
ATOM      1  C   UNL     1      51.513  56.045  22.559  1.00  0.00    +0.034 C 
ENDROOT
BRANCH   1   2
ATOM      2  C   UNL     1      50.824  57.331  22.100  1.00  0.00    +0.003 C 
BRANCH   2   3
ATOM      3  C   UNL     1      49.493  57.084  21.382  1.00  0.00    +0.000 C 
BRANCH   3   4
ATOM      4  C   UNL     1      48.526  58.269  21.462  1.00  0.00    -0.000 C 
BRANCH   4   5
ATOM      5  C   UNL     1      47.356  58.093  20.494  1.00  0.00    -0.003 C 
ATOM      6  C   UNL     1      47.491  59.005  19.285  1.00  0.00    +0.004 C 
ENDBRANCH   4   5
ENDBRANCH   3   4
ENDBRANCH   2   3
ENDBRANCH   1   2
BRANCH   1   7
ATOM      7  C   UNL     1      51.473  54.920  21.515  1.00  0.00    +0.136 C 
BRANCH   7   8
ATOM      8  O   UNL     1      52.559  55.166  20.608  1.00  0.00    -0.391 OA
ATOM      9  H   UNL     1      53.135  54.380  20.636  1.00  0.00    +0.211 HD
ENDBRANCH   7   8
BRANCH   7  10
ATOM     10  C   UNL     1      51.642  53.530  22.139  1.00  0.00    +0.176 C 
BRANCH  10  11
ATOM     11  N   UNL     1      51.206  52.472  21.239  1.00  0.00    -0.267 N 
ATOM     12  C   UNL     1      51.411  51.126  21.404  1.00  0.00    +0.123 A 
ATOM     13  N   UNL     1      50.524  52.796  20.117  1.00  0.00    -0.152 NA
ATOM     14  C   UNL     1      50.806  50.552  20.318  1.00  0.00    +0.081 A 
ATOM     15  C   UNL     1      50.265  51.614  19.552  1.00  0.00    +0.186 A 
ATOM     16  C   UNL     1      50.707  49.203  19.989  1.00  0.00    +0.137 A 
ATOM     17  N   UNL     1      49.592  51.389  18.400  1.00  0.00    -0.215 NA
ATOM     18  N   UNL     1      50.033  48.982  18.834  1.00  0.00    -0.219 NA
ATOM     19  C   UNL     1      49.529  50.055  18.137  1.00  0.00    +0.226 A 
BRANCH  16  20
ATOM     20  N   UNL     1      51.223  48.132  20.694  1.00  0.00    -0.383 N 
ATOM     21  H   UNL     1      51.996  48.345  21.309  1.00  0.00    +0.158 HD
ATOM     22  H   UNL     1      51.326  47.315  20.104  1.00  0.00    +0.158 HD
ENDBRANCH  16  20
ENDBRANCH  10  11
ENDBRANCH   7  10
ENDBRANCH   1   7
TORSDOF 9
ENDMDL
MODEL 3
REMARK VINA RESULT:    -6.404      3.774      6.131
REMARK INTER + INTRA:         -10.442
REMARK INTER:                 -10.083
REMARK INTRA:                  -0.359
REMARK UNBOUND:                -1.043
REMARK SMILES CCCCCCC(O)Cn1cc2c(N)ncnc2n1
REMARK SMILES IDX 6 1 5 2 4 3 3 4 2 5 1 6 7 7 8 8 9 10 10 11 11 12 19 13 12 14
REMARK SMILES IDX 18 15 13 16 17 17 15 18 16 19 14 20
REMARK H PARENT 8 9 14 21 14 22
ROOT
ATOM      1  C   UNL     1      50.558  49.639  20.170  1.00  0.00    +0.034 C 
ENDROOT
BRANCH   1   2
ATOM      2  C   UNL     1      49.824  49.868  18.848  1.00  0.00    +0.003 C 
BRANCH   2   3
ATOM      3  C   UNL     1      48.956  48.679  18.421  1.00  0.00    +0.000 C 
BRANCH   3   4
ATOM      4  C   UNL     1      47.471  49.026  18.282  1.00  0.00    -0.000 C 
BRANCH   4   5
ATOM      5  C   UNL     1      46.639  47.779  17.975  1.00  0.00    -0.003 C 
ATOM      6  C   UNL     1      45.565  47.554  19.026  1.00  0.00    +0.004 C 
ENDBRANCH   4   5
ENDBRANCH   3   4
ENDBRANCH   2   3
ENDBRANCH   1   2
BRANCH   1   7
ATOM      7  C   UNL     1      52.056  49.972  20.106  1.00  0.00    +0.136 C 
BRANCH   7   8
ATOM      8  O   UNL     1      52.734  48.745  19.793  1.00  0.00    -0.391 OA
ATOM      9  H   UNL     1      52.845  48.261  20.631  1.00  0.00    +0.211 HD
ENDBRANCH   7   8
BRANCH   7  10
ATOM     10  C   UNL     1      52.382  51.017  19.034  1.00  0.00    +0.176 C 
BRANCH  10  11
ATOM     11  N   UNL     1      52.226  52.376  19.532  1.00  0.00    -0.267 N 
ATOM     12  C   UNL     1      52.042  52.749  20.838  1.00  0.00    +0.123 A 
ATOM     13  N   UNL     1      52.264  53.409  18.660  1.00  0.00    -0.152 NA
ATOM     14  C   UNL     1      51.971  54.117  20.797  1.00  0.00    +0.081 A 
ATOM     15  C   UNL     1      52.119  54.486  19.437  1.00  0.00    +0.186 A 
ATOM     16  C   UNL     1      51.797  55.011  21.849  1.00  0.00    +0.137 A 
ATOM     17  N   UNL     1      52.096  55.780  19.045  1.00  0.00    -0.215 NA
ATOM     18  N   UNL     1      51.774  56.307  21.452  1.00  0.00    -0.219 NA
ATOM     19  C   UNL     1      51.925  56.600  20.117  1.00  0.00    +0.226 A 
BRANCH  16  20
ATOM     20  N   UNL     1      51.639  54.705  23.188  1.00  0.00    -0.383 N 
ATOM     21  H   UNL     1      51.532  55.496  23.807  1.00  0.00    +0.158 HD
ATOM     22  H   UNL     1      52.288  53.985  23.482  1.00  0.00    +0.158 HD
ENDBRANCH  16  20
ENDBRANCH  10  11
ENDBRANCH   7  10
ENDBRANCH   1   7
TORSDOF 9
ENDMDL
MODEL 4
REMARK VINA RESULT:    -6.219      3.341      6.118
REMARK INTER + INTRA:         -10.171
REMARK INTER:                  -9.623
REMARK INTRA:                  -0.548
REMARK UNBOUND:                -1.043
REMARK SMILES CCCCCCC(O)Cn1cc2c(N)ncnc2n1
REMARK SMILES IDX 6 1 5 2 4 3 3 4 2 5 1 6 7 7 8 8 9 10 10 11 11 12 19 13 12 14
REMARK SMILES IDX 18 15 13 16 17 17 15 18 16 19 14 20
REMARK H PARENT 8 9 14 21 14 22
ROOT
ATOM      1  C   UNL     1      51.415  49.538  20.017  1.00  0.00    +0.034 C 
ENDROOT
BRANCH   1   2
ATOM      2  C   UNL     1      50.063  48.827  20.071  1.00  0.00    +0.003 C 
BRANCH   2   3
ATOM      3  C   UNL     1      49.361  48.751  18.711  1.00  0.00    +0.000 C 
BRANCH   3   4
ATOM      4  C   UNL     1      47.836  48.851  18.803  1.00  0.00    -0.000 C 
BRANCH   4   5
ATOM      5  C   UNL     1      47.279  49.790  17.732  1.00  0.00    -0.003 C 
ATOM      6  C   UNL     1      45.833  49.457  17.398  1.00  0.00    +0.004 C 
ENDBRANCH   4   5
ENDBRANCH   3   4
ENDBRANCH   2   3
ENDBRANCH   1   2
BRANCH   1   7
ATOM      7  C   UNL     1      51.420  50.903  20.719  1.00  0.00    +0.136 C 
BRANCH   7   8
ATOM      8  O   UNL     1      52.381  50.813  21.782  1.00  0.00    -0.391 OA
ATOM      9  H   UNL     1      52.289  49.924  22.173  1.00  0.00    +0.211 HD
ENDBRANCH   7   8
BRANCH   7  10
ATOM     10  C   UNL     1      51.812  52.049  19.779  1.00  0.00    +0.176 C 
BRANCH  10  11
ATOM     11  N   UNL     1      51.377  53.342  20.284  1.00  0.00    -0.267 N 
ATOM     12  C   UNL     1      50.233  54.012  19.933  1.00  0.00    +0.123 A 
ATOM     13  N   UNL     1      52.139  53.987  21.196  1.00  0.00    -0.152 NA
ATOM     14  C   UNL     1      50.262  55.158  20.682  1.00  0.00    +0.081 A 
ATOM     15  C   UNL     1      51.450  55.103  21.454  1.00  0.00    +0.186 A 
ATOM     16  C   UNL     1      49.336  56.195  20.723  1.00  0.00    +0.137 A 
ATOM     17  N   UNL     1      51.787  56.091  22.313  1.00  0.00    -0.215 NA
ATOM     18  N   UNL     1      49.677  57.185  21.585  1.00  0.00    -0.219 NA
ATOM     19  C   UNL     1      50.842  57.071  22.307  1.00  0.00    +0.226 A 
BRANCH  16  20
ATOM     20  N   UNL     1      48.170  56.303  19.988  1.00  0.00    -0.383 N 
ATOM     21  H   UNL     1      47.315  56.117  20.494  1.00  0.00    +0.158 HD
ATOM     22  H   UNL     1      48.263  55.863  19.080  1.00  0.00    +0.158 HD
ENDBRANCH  16  20
ENDBRANCH  10  11
ENDBRANCH   7  10
ENDBRANCH   1   7
TORSDOF 9
ENDMDL
MODEL 5
REMARK VINA RESULT:    -6.143      3.350      4.940
REMARK INTER + INTRA:         -10.059
REMARK INTER:                  -9.197
REMARK INTRA:                  -0.862
REMARK UNBOUND:                -1.043
REMARK SMILES CCCCCCC(O)Cn1cc2c(N)ncnc2n1
REMARK SMILES IDX 6 1 5 2 4 3 3 4 2 5 1 6 7 7 8 8 9 10 10 11 11 12 19 13 12 14
REMARK SMILES IDX 18 15 13 16 17 17 15 18 16 19 14 20
REMARK H PARENT 8 9 14 21 14 22
ROOT
ATOM      1  C   UNL     1      50.976  52.742  21.632  1.00  0.00    +0.034 C 
ENDROOT
BRANCH   1   2
ATOM      2  C   UNL     1      51.619  54.094  21.945  1.00  0.00    +0.003 C 
BRANCH   2   3
ATOM      3  C   UNL     1      50.898  55.276  21.289  1.00  0.00    +0.000 C 
BRANCH   3   4
ATOM      4  C   UNL     1      49.650  54.871  20.501  1.00  0.00    -0.000 C 
BRANCH   4   5
ATOM      5  C   UNL     1      48.925  56.097  19.945  1.00  0.00    -0.003 C 
ATOM      6  C   UNL     1      48.701  57.147  21.021  1.00  0.00    +0.004 C 
ENDBRANCH   4   5
ENDBRANCH   3   4
ENDBRANCH   2   3
ENDBRANCH   1   2
BRANCH   1   7
ATOM      7  C   UNL     1      51.989  51.654  21.250  1.00  0.00    +0.136 C 
BRANCH   7   8
ATOM      8  O   UNL     1      51.503  50.427  21.817  1.00  0.00    -0.391 OA
ATOM      9  H   UNL     1      50.551  50.550  21.984  1.00  0.00    +0.211 HD
ENDBRANCH   7   8
BRANCH   7  10
ATOM     10  C   UNL     1      52.132  51.488  19.733  1.00  0.00    +0.176 C 
BRANCH  10  11
ATOM     11  N   UNL     1      50.860  51.188  19.095  1.00  0.00    -0.267 N 
ATOM     12  C   UNL     1      50.175  51.994  18.222  1.00  0.00    +0.123 A 
ATOM     13  N   UNL     1      50.253  50.007  19.351  1.00  0.00    -0.152 NA
ATOM     14  C   UNL     1      49.060  51.271  17.889  1.00  0.00    +0.081 A 
ATOM     15  C   UNL     1      49.148  50.048  18.601  1.00  0.00    +0.186 A 
ATOM     16  C   UNL     1      48.024  51.616  17.027  1.00  0.00    +0.137 A 
ATOM     17  N   UNL     1      48.195  49.095  18.496  1.00  0.00    -0.215 NA
ATOM     18  N   UNL     1      47.071  50.658  16.925  1.00  0.00    -0.219 NA
ATOM     19  C   UNL     1      47.215  49.492  17.639  1.00  0.00    +0.226 A 
BRANCH  16  20
ATOM     20  N   UNL     1      47.885  52.795  16.318  1.00  0.00    -0.383 N 
ATOM     21  H   UNL     1      48.452  53.567  16.640  1.00  0.00    +0.158 HD
ATOM     22  H   UNL     1      46.912  52.999  16.124  1.00  0.00    +0.158 HD
ENDBRANCH  16  20
ENDBRANCH  10  11
ENDBRANCH   7  10
ENDBRANCH   1   7
TORSDOF 9
ENDMDL
