MODEL 1
REMARK VINA RESULT:    -6.486      0.000      0.000
REMARK INTER + INTRA:         -10.379
REMARK INTER:                  -9.330
REMARK INTRA:                  -1.049
REMARK UNBOUND:                -1.049
REMARK SMILES CCCCCCCCn1cc2c(N)ncnc2n1
REMARK SMILES IDX 6 1 5 2 4 3 3 4 2 5 1 6 7 7 8 8 9 9 10 10 18 11 11 12 17 13
REMARK SMILES IDX 12 14 16 15 14 16 15 17 13 18
REMARK H PARENT 13 19 13 20
ROOT
ATOM      1  C   UNL     1      49.304  57.548  21.792  1.00  0.00    +0.002 C 
ENDROOT
BRANCH   1   2
ATOM      2  C   UNL     1      48.251  57.401  20.690  1.00  0.00    +0.000 C 
BRANCH   2   3
ATOM      3  C   UNL     1      48.712  56.697  19.409  1.00  0.00    -0.000 C 
BRANCH   3   4
ATOM      4  C   UNL     1      48.591  55.173  19.474  1.00  0.00    -0.000 C 
BRANCH   4   5
ATOM      5  C   UNL     1      48.960  54.532  18.136  1.00  0.00    -0.003 C 
ATOM      6  C   UNL     1      48.703  53.034  18.146  1.00  0.00    +0.004 C 
ENDBRANCH   4   5
ENDBRANCH   3   4
ENDBRANCH   2   3
ENDBRANCH   1   2
BRANCH   1   7
ATOM      7  C   UNL     1      50.743  57.507  21.269  1.00  0.00    +0.024 C 
BRANCH   7   8
ATOM      8  C   UNL     1      51.617  56.495  22.012  1.00  0.00    +0.144 C 
BRANCH   8   9
ATOM      9  N   UNL     1      51.817  55.254  21.286  1.00  0.00    -0.270 N 
ATOM     10  C   UNL     1      51.724  53.989  21.804  1.00  0.00    +0.123 A 
ATOM     11  N   UNL     1      52.152  55.295  19.977  1.00  0.00    -0.152 NA
ATOM     12  C   UNL     1      51.993  53.163  20.743  1.00  0.00    +0.081 A 
ATOM     13  C   UNL     1      52.246  54.008  19.633  1.00  0.00    +0.186 A 
ATOM     14  C   UNL     1      52.019  51.773  20.706  1.00  0.00    +0.137 A 
ATOM     15  N   UNL     1      52.544  53.507  18.412  1.00  0.00    -0.215 NA
ATOM     16  N   UNL     1      52.319  51.275  19.481  1.00  0.00    -0.219 NA
ATOM     17  C   UNL     1      52.551  52.146  18.445  1.00  0.00    +0.226 A 
BRANCH  14  18
ATOM     18  N   UNL     1      51.793  50.905  21.759  1.00  0.00    -0.383 N 
ATOM     19  H   UNL     1      50.800  50.789  21.931  1.00  0.00    +0.158 HD
ATOM     20  H   UNL     1      52.349  50.062  21.751  1.00  0.00    +0.158 HD
ENDBRANCH  14  18
ENDBRANCH   8   9
ENDBRANCH   7   8
ENDBRANCH   1   7
TORSDOF 8
ENDMDL
MODEL 2
REMARK VINA RESULT:    -6.396      1.418      2.404
REMARK INTER + INTRA:         -10.249
REMARK INTER:                  -9.736
REMARK INTRA:                  -0.514
REMARK UNBOUND:                -1.049
REMARK SMILES CCCCCCCCn1cc2c(N)ncnc2n1
REMARK SMILES IDX 6 1 5 2 4 3 3 4 2 5 1 6 7 7 8 8 9 9 10 10 18 11 11 12 17 13
REMARK SMILES IDX 12 14 16 15 14 16 15 17 13 18
REMARK H PARENT 13 19 13 20
ROOT
ATOM      1  C   UNL     1      50.025  57.634  21.585  1.00  0.00    +0.002 C 
ENDROOT
BRANCH   1   2
ATOM      2  C   UNL     1      49.387  57.057  20.317  1.00  0.00    +0.000 C 
BRANCH   2   3
ATOM      3  C   UNL     1      47.863  56.903  20.341  1.00  0.00    -0.000 C 
BRANCH   3   4
ATOM      4  C   UNL     1      47.116  58.238  20.375  1.00  0.00    -0.000 C 
BRANCH   4   5
ATOM      5  C   UNL     1      47.519  59.127  19.198  1.00  0.00    -0.003 C 
ATOM      6  C   UNL     1      46.904  60.513  19.310  1.00  0.00    +0.004 C 
ENDBRANCH   4   5
ENDBRANCH   3   4
ENDBRANCH   2   3
ENDBRANCH   1   2
BRANCH   1   7
ATOM      7  C   UNL     1      51.502  57.264  21.745  1.00  0.00    +0.024 C 
BRANCH   7   8
ATOM      8  C   UNL     1      51.707  55.938  22.479  1.00  0.00    +0.144 C 
BRANCH   8   9
ATOM      9  N   UNL     1      51.858  54.798  21.592  1.00  0.00    -0.270 N 
ATOM     10  C   UNL     1      51.692  53.481  21.932  1.00  0.00    +0.123 A 
ATOM     11  N   UNL     1      52.218  54.999  20.305  1.00  0.00    -0.152 NA
ATOM     12  C   UNL     1      51.938  52.795  20.771  1.00  0.00    +0.081 A 
ATOM     13  C   UNL     1      52.254  53.768  19.790  1.00  0.00    +0.186 A 
ATOM     14  C   UNL     1      51.895  51.422  20.545  1.00  0.00    +0.137 A 
ATOM     15  N   UNL     1      52.548  53.423  18.515  1.00  0.00    -0.215 NA
ATOM     16  N   UNL     1      52.192  51.081  19.267  1.00  0.00    -0.219 NA
ATOM     17  C   UNL     1      52.486  52.072  18.361  1.00  0.00    +0.226 A 
BRANCH  14  18
ATOM     18  N   UNL     1      51.606  50.432  21.467  1.00  0.00    -0.383 N 
ATOM     19  H   UNL     1      52.012  50.645  22.371  1.00  0.00    +0.158 HD
ATOM     20  H   UNL     1      50.649  50.110  21.468  1.00  0.00    +0.158 HD
ENDBRANCH  14  18
ENDBRANCH   8   9
ENDBRANCH   7   8
ENDBRANCH   1   7
TORSDOF 8
ENDMDL
MODEL 3
REMARK VINA RESULT:    -6.297      3.815      6.154
REMARK INTER + INTRA:         -10.108
REMARK INTER:                  -9.453
REMARK INTRA:                  -0.655
REMARK UNBOUND:                -1.049
REMARK SMILES CCCCCCCCn1cc2c(N)ncnc2n1
REMARK SMILES IDX 6 1 5 2 4 3 3 4 2 5 1 6 7 7 8 8 9 9 10 10 18 11 11 12 17 13
REMARK SMILES IDX 12 14 16 15 14 16 15 17 13 18
REMARK H PARENT 13 19 13 20
ROOT
ATOM      1  C   UNL     1      47.085  49.890  16.834  1.00  0.00    +0.002 C 
ENDROOT
BRANCH   1   2
ATOM      2  C   UNL     1      47.146  49.155  18.177  1.00  0.00    +0.000 C 
BRANCH   2   3
ATOM      3  C   UNL     1      46.002  48.177  18.461  1.00  0.00    -0.000 C 
BRANCH   3   4
ATOM      4  C   UNL     1      44.754  48.437  17.613  1.00  0.00    -0.000 C 
BRANCH   4   5
ATOM      5  C   UNL     1      44.503  47.290  16.633  1.00  0.00    -0.003 C 
ATOM      6  C   UNL     1      44.524  47.774  15.192  1.00  0.00    +0.004 C 
ENDBRANCH   4   5
ENDBRANCH   3   4
ENDBRANCH   2   3
ENDBRANCH   1   2
BRANCH   1   7
ATOM      7  C   UNL     1      47.512  51.358  16.924  1.00  0.00    +0.024 C 
BRANCH   7   8
ATOM      8  C   UNL     1      49.001  51.563  16.635  1.00  0.00    +0.144 C 
BRANCH   8   9
ATOM      9  N   UNL     1      49.839  51.493  17.819  1.00  0.00    -0.270 N 
ATOM     10  C   UNL     1      50.681  50.466  18.155  1.00  0.00    +0.123 A 
ATOM     11  N   UNL     1      49.804  52.501  18.719  1.00  0.00    -0.152 NA
ATOM     12  C   UNL     1      51.244  50.859  19.342  1.00  0.00    +0.081 A 
ATOM     13  C   UNL     1      50.681  52.122  19.653  1.00  0.00    +0.186 A 
ATOM     14  C   UNL     1      52.187  50.195  20.120  1.00  0.00    +0.137 A 
ATOM     15  N   UNL     1      51.029  52.799  20.771  1.00  0.00    -0.215 NA
ATOM     16  N   UNL     1      52.532  50.876  21.240  1.00  0.00    -0.219 NA
ATOM     17  C   UNL     1      51.952  52.098  21.484  1.00  0.00    +0.226 A 
BRANCH  14  18
ATOM     18  N   UNL     1      52.757  48.960  19.869  1.00  0.00    -0.383 N 
ATOM     19  H   UNL     1      53.530  48.779  20.500  1.00  0.00    +0.158 HD
ATOM     20  H   UNL     1      52.103  48.203  19.731  1.00  0.00    +0.158 HD
ENDBRANCH  14  18
ENDBRANCH   8   9
ENDBRANCH   7   8
ENDBRANCH   1   7
TORSDOF 8
ENDMDL
MODEL 4
REMARK VINA RESULT:    -6.136      0.859      1.937
REMARK INTER + INTRA:          -9.875
REMARK INTER:                  -8.903
REMARK INTRA:                  -0.972
REMARK UNBOUND:                -1.049
REMARK SMILES CCCCCCCCn1cc2c(N)ncnc2n1
REMARK SMILES IDX 6 1 5 2 4 3 3 4 2 5 1 6 7 7 8 8 9 9 10 10 18 11 11 12 17 13
REMARK SMILES IDX 12 14 16 15 14 16 15 17 13 18
REMARK H PARENT 13 19 13 20
ROOT
ATOM      1  C   UNL     1      49.223  57.460  21.258  1.00  0.00    +0.002 C 
ENDROOT
BRANCH   1   2
ATOM      2  C   UNL     1      48.571  56.433  20.328  1.00  0.00    +0.000 C 
BRANCH   2   3
ATOM      3  C   UNL     1      48.647  56.740  18.829  1.00  0.00    -0.000 C 
BRANCH   3   4
ATOM      4  C   UNL     1      48.626  55.489  17.948  1.00  0.00    -0.000 C 
BRANCH   4   5
ATOM      5  C   UNL     1      48.707  54.217  18.793  1.00  0.00    -0.003 C 
ATOM      6  C   UNL     1      49.130  53.019  17.959  1.00  0.00    +0.004 C 
ENDBRANCH   4   5
ENDBRANCH   3   4
ENDBRANCH   2   3
ENDBRANCH   1   2
BRANCH   1   7
ATOM      7  C   UNL     1      50.512  56.955  21.914  1.00  0.00    +0.024 C 
BRANCH   7   8
ATOM      8  C   UNL     1      51.615  56.651  20.898  1.00  0.00    +0.144 C 
BRANCH   8   9
ATOM      9  N   UNL     1      51.832  55.232  20.683  1.00  0.00    -0.270 N 
ATOM     10  C   UNL     1      52.189  54.638  19.500  1.00  0.00    +0.123 A 
ATOM     11  N   UNL     1      51.655  54.367  21.707  1.00  0.00    -0.152 NA
ATOM     12  C   UNL     1      52.271  53.303  19.798  1.00  0.00    +0.081 A 
ATOM     13  C   UNL     1      51.940  53.178  21.170  1.00  0.00    +0.186 A 
ATOM     14  C   UNL     1      52.613  52.244  18.963  1.00  0.00    +0.137 A 
ATOM     15  N   UNL     1      51.930  51.977  21.793  1.00  0.00    -0.215 NA
ATOM     16  N   UNL     1      52.600  51.042  19.590  1.00  0.00    -0.219 NA
ATOM     17  C   UNL     1      52.273  50.987  20.924  1.00  0.00    +0.226 A 
BRANCH  14  18
ATOM     18  N   UNL     1      52.932  52.309  17.618  1.00  0.00    -0.383 N 
ATOM     19  H   UNL     1      52.338  51.695  17.072  1.00  0.00    +0.158 HD
ATOM     20  H   UNL     1      53.073  53.240  17.253  1.00  0.00    +0.158 HD
ENDBRANCH  14  18
ENDBRANCH   8   9
ENDBRANCH   7   8
ENDBRANCH   1   7
TORSDOF 8
ENDMDL
MODEL 5
REMARK VINA RESULT:    -6.107      1.668      3.354
REMARK INTER + INTRA:          -9.833
REMARK INTER:                  -9.487
REMARK INTRA:                  -0.346
REMARK UNBOUND:                -1.049
REMARK SMILES CCCCCCCCn1cc2c(N)ncnc2n1
REMARK SMILES IDX 6 1 5 2 4 3 3 4 2 5 1 6 7 7 8 8 9 9 10 10 18 11 11 12 17 13
REMARK SMILES IDX 12 14 16 15 14 16 15 17 13 18
REMARK H PARENT 13 19 13 20
ROOT
ATOM      1  C   UNL     1      49.779  57.452  21.610  1.00  0.00    +0.002 C 
ENDROOT
BRANCH   1   2
ATOM      2  C   UNL     1      48.529  56.952  20.879  1.00  0.00    +0.000 C 
BRANCH   2   3
ATOM      3  C   UNL     1      47.432  57.993  20.634  1.00  0.00    -0.000 C 
BRANCH   3   4
ATOM      4  C   UNL     1      47.837  59.083  19.639  1.00  0.00    -0.000 C 
BRANCH   4   5
ATOM      5  C   UNL     1      46.639  59.950  19.250  1.00  0.00    -0.003 C 
ATOM      6  C   UNL     1      46.932  61.428  19.454  1.00  0.00    +0.004 C 
ENDBRANCH   4   5
ENDBRANCH   3   4
ENDBRANCH   2   3
ENDBRANCH   1   2
BRANCH   1   7
ATOM      7  C   UNL     1      51.066  56.755  21.160  1.00  0.00    +0.024 C 
BRANCH   7   8
ATOM      8  C   UNL     1      51.508  55.647  22.118  1.00  0.00    +0.144 C 
BRANCH   8   9
ATOM      9  N   UNL     1      51.745  54.373  21.465  1.00  0.00    -0.270 N 
ATOM     10  C   UNL     1      52.178  54.192  20.177  1.00  0.00    +0.123 A 
ATOM     11  N   UNL     1      51.510  53.225  22.138  1.00  0.00    -0.152 NA
ATOM     12  C   UNL     1      52.249  52.831  20.027  1.00  0.00    +0.081 A 
ATOM     13  C   UNL     1      51.834  52.271  21.261  1.00  0.00    +0.186 A 
ATOM     14  C   UNL     1      52.647  52.097  18.914  1.00  0.00    +0.137 A 
ATOM     15  N   UNL     1      51.792  50.933  21.456  1.00  0.00    -0.215 NA
ATOM     16  N   UNL     1      52.601  50.757  19.113  1.00  0.00    -0.219 NA
ATOM     17  C   UNL     1      52.193  50.276  20.334  1.00  0.00    +0.226 A 
BRANCH  14  18
ATOM     18  N   UNL     1      53.047  52.592  17.686  1.00  0.00    -0.383 N 
ATOM     19  H   UNL     1      52.312  52.493  16.995  1.00  0.00    +0.158 HD
ATOM     20  H   UNL     1      53.520  53.484  17.714  1.00  0.00    +0.158 HD
ENDBRANCH  14  18
ENDBRANCH   8   9
ENDBRANCH   7   8
ENDBRANCH   1   7
TORSDOF 8
ENDMDL
