MODEL 1
REMARK VINA RESULT:    -7.093      0.000      0.000
REMARK INTER + INTRA:         -11.168
REMARK INTER:                 -10.617
REMARK INTRA:                  -0.550
REMARK UNBOUND:                -0.550
REMARK SMILES CCCCCCCCCn1cc2c(N)ncnc2n1
REMARK SMILES IDX 6 1 5 2 4 3 3 4 2 5 1 6 7 7 8 8 9 9 10 10 11 11 19 12 12 13
REMARK SMILES IDX 18 14 13 15 17 16 15 17 16 18 14 19
REMARK H PARENT 14 20 14 21
ROOT
ATOM      1  C   UNL     1      48.692  56.859  20.484  1.00  0.00    +0.000 C 
ENDROOT
BRANCH   1   2
ATOM      2  C   UNL     1      47.393  57.586  20.127  1.00  0.00    +0.000 C 
BRANCH   2   3
ATOM      3  C   UNL     1      47.512  59.112  20.206  1.00  0.00    -0.000 C 
BRANCH   3   4
ATOM      4  C   UNL     1      47.105  59.821  18.910  1.00  0.00    -0.000 C 
BRANCH   4   5
ATOM      5  C   UNL     1      46.038  60.897  19.122  1.00  0.00    -0.003 C 
ATOM      6  C   UNL     1      46.602  62.225  19.602  1.00  0.00    +0.004 C 
ENDBRANCH   4   5
ENDBRANCH   3   4
ENDBRANCH   2   3
ENDBRANCH   1   2
BRANCH   1   7
ATOM      7  C   UNL     1      49.404  57.448  21.707  1.00  0.00    +0.002 C 
BRANCH   7   8
ATOM      8  C   UNL     1      50.936  57.479  21.644  1.00  0.00    +0.024 C 
BRANCH   8   9
ATOM      9  C   UNL     1      51.643  56.332  22.367  1.00  0.00    +0.144 C 
BRANCH   9  10
ATOM     10  N   UNL     1      51.814  55.147  21.544  1.00  0.00    -0.270 N 
ATOM     11  C   UNL     1      51.693  53.848  21.962  1.00  0.00    +0.123 A 
ATOM     12  N   UNL     1      52.097  55.284  20.231  1.00  0.00    -0.152 NA
ATOM     13  C   UNL     1      51.943  53.103  20.839  1.00  0.00    +0.081 A 
ATOM     14  C   UNL     1      52.194  54.026  19.793  1.00  0.00    +0.186 A 
ATOM     15  C   UNL     1      51.966  51.718  20.700  1.00  0.00    +0.137 A 
ATOM     16  N   UNL     1      52.483  53.615  18.537  1.00  0.00    -0.215 NA
ATOM     17  N   UNL     1      52.255  51.311  19.440  1.00  0.00    -0.219 NA
ATOM     18  C   UNL     1      52.492  52.257  18.471  1.00  0.00    +0.226 A 
BRANCH  15  19
ATOM     19  N   UNL     1      51.718  50.776  21.683  1.00  0.00    -0.383 N 
ATOM     20  H   UNL     1      50.754  50.488  21.771  1.00  0.00    +0.158 HD
ATOM     21  H   UNL     1      52.410  50.035  21.661  1.00  0.00    +0.158 HD
ENDBRANCH  15  19
ENDBRANCH   9  10
ENDBRANCH   8   9
ENDBRANCH   7   8
ENDBRANCH   1   7
TORSDOF 9
ENDMDL
MODEL 2
REMARK VINA RESULT:    -6.898      1.988      3.434
REMARK INTER + INTRA:         -10.877
REMARK INTER:                  -9.775
REMARK INTRA:                  -1.102
REMARK UNBOUND:                -0.550
REMARK SMILES CCCCCCCCCn1cc2c(N)ncnc2n1
REMARK SMILES IDX 6 1 5 2 4 3 3 4 2 5 1 6 7 7 8 8 9 9 10 10 11 11 19 12 12 13
REMARK SMILES IDX 18 14 13 15 17 16 15 17 16 18 14 19
REMARK H PARENT 14 20 14 21
ROOT
ATOM      1  C   UNL     1      48.372  57.174  20.847  1.00  0.00    +0.000 C 
ENDROOT
BRANCH   1   2
ATOM      2  C   UNL     1      47.913  56.399  19.609  1.00  0.00    +0.000 C 
BRANCH   2   3
ATOM      3  C   UNL     1      48.385  54.941  19.597  1.00  0.00    -0.000 C 
BRANCH   3   4
ATOM      4  C   UNL     1      49.018  54.518  18.268  1.00  0.00    -0.000 C 
BRANCH   4   5
ATOM      5  C   UNL     1      48.822  53.033  17.954  1.00  0.00    -0.003 C 
ATOM      6  C   UNL     1      47.546  52.740  17.179  1.00  0.00    +0.004 C 
ENDBRANCH   4   5
ENDBRANCH   3   4
ENDBRANCH   2   3
ENDBRANCH   1   2
BRANCH   1   7
ATOM      7  C   UNL     1      49.886  57.408  20.893  1.00  0.00    +0.002 C 
BRANCH   7   8
ATOM      8  C   UNL     1      50.613  56.869  22.131  1.00  0.00    +0.024 C 
BRANCH   8   9
ATOM      9  C   UNL     1      52.031  56.351  21.881  1.00  0.00    +0.144 C 
BRANCH   9  10
ATOM     10  N   UNL     1      52.067  55.080  21.179  1.00  0.00    -0.270 N 
ATOM     11  C   UNL     1      51.778  53.852  21.714  1.00  0.00    +0.123 A 
ATOM     12  N   UNL     1      52.387  55.053  19.867  1.00  0.00    -0.152 NA
ATOM     13  C   UNL     1      51.953  52.977  20.673  1.00  0.00    +0.081 A 
ATOM     14  C   UNL     1      52.334  53.757  19.553  1.00  0.00    +0.186 A 
ATOM     15  C   UNL     1      51.806  51.593  20.666  1.00  0.00    +0.137 A 
ATOM     16  N   UNL     1      52.590  53.193  18.350  1.00  0.00    -0.215 NA
ATOM     17  N   UNL     1      52.063  51.033  19.459  1.00  0.00    -0.219 NA
ATOM     18  C   UNL     1      52.433  51.844  18.412  1.00  0.00    +0.226 A 
BRANCH  15  19
ATOM     19  N   UNL     1      51.426  50.787  21.725  1.00  0.00    -0.383 N 
ATOM     20  H   UNL     1      52.185  50.414  22.278  1.00  0.00    +0.158 HD
ATOM     21  H   UNL     1      50.654  51.199  22.238  1.00  0.00    +0.158 HD
ENDBRANCH  15  19
ENDBRANCH   9  10
ENDBRANCH   8   9
ENDBRANCH   7   8
ENDBRANCH   1   7
TORSDOF 9
ENDMDL
MODEL 3
REMARK VINA RESULT:    -6.646      1.915      3.484
REMARK INTER + INTRA:         -10.499
REMARK INTER:                  -9.527
REMARK INTRA:                  -0.972
REMARK UNBOUND:                -0.550
REMARK SMILES CCCCCCCCCn1cc2c(N)ncnc2n1
REMARK SMILES IDX 6 1 5 2 4 3 3 4 2 5 1 6 7 7 8 8 9 9 10 10 11 11 19 12 12 13
REMARK SMILES IDX 18 14 13 15 17 16 15 17 16 18 14 19
REMARK H PARENT 14 20 14 21
ROOT
ATOM      1  C   UNL     1      49.493  57.347  21.760  1.00  0.00    +0.000 C 
ENDROOT
BRANCH   1   2
ATOM      2  C   UNL     1      48.317  57.821  20.903  1.00  0.00    +0.000 C 
BRANCH   2   3
ATOM      3  C   UNL     1      48.010  56.889  19.726  1.00  0.00    -0.000 C 
BRANCH   3   4
ATOM      4  C   UNL     1      48.504  55.455  19.942  1.00  0.00    -0.000 C 
BRANCH   4   5
ATOM      5  C   UNL     1      49.270  54.895  18.741  1.00  0.00    -0.003 C 
ATOM      6  C   UNL     1      48.503  53.827  17.976  1.00  0.00    +0.004 C 
ENDBRANCH   4   5
ENDBRANCH   3   4
ENDBRANCH   2   3
ENDBRANCH   1   2
BRANCH   1   7
ATOM      7  C   UNL     1      50.860  57.753  21.198  1.00  0.00    +0.002 C 
BRANCH   7   8
ATOM      8  C   UNL     1      51.935  56.659  21.185  1.00  0.00    +0.024 C 
BRANCH   8   9
ATOM      9  C   UNL     1      51.672  55.475  22.118  1.00  0.00    +0.144 C 
BRANCH   9  10
ATOM     10  N   UNL     1      51.739  54.187  21.450  1.00  0.00    -0.270 N 
ATOM     11  C   UNL     1      52.225  53.954  20.190  1.00  0.00    +0.123 A 
ATOM     12  N   UNL     1      51.316  53.079  22.096  1.00  0.00    -0.152 NA
ATOM     13  C   UNL     1      52.076  52.603  20.012  1.00  0.00    +0.081 A 
ATOM     14  C   UNL     1      51.507  52.100  21.209  1.00  0.00    +0.186 A 
ATOM     15  C   UNL     1      52.396  51.832  18.898  1.00  0.00    +0.137 A 
ATOM     16  N   UNL     1      51.224  50.786  21.364  1.00  0.00    -0.215 NA
ATOM     17  N   UNL     1      52.112  50.516  19.058  1.00  0.00    -0.219 NA
ATOM     18  C   UNL     1      51.556  50.092  20.242  1.00  0.00    +0.226 A 
BRANCH  15  19
ATOM     19  N   UNL     1      52.962  52.269  17.714  1.00  0.00    -0.383 N 
ATOM     20  H   UNL     1      53.563  51.603  17.250  1.00  0.00    +0.158 HD
ATOM     21  H   UNL     1      52.276  52.739  17.133  1.00  0.00    +0.158 HD
ENDBRANCH  15  19
ENDBRANCH   9  10
ENDBRANCH   8   9
ENDBRANCH   7   8
ENDBRANCH   1   7
TORSDOF 9
ENDMDL
MODEL 4
REMARK VINA RESULT:    -6.575      2.273      4.101
REMARK INTER + INTRA:         -10.393
REMARK INTER:                  -9.488
REMARK INTRA:                  -0.905
REMARK UNBOUND:                -0.550
REMARK SMILES CCCCCCCCCn1cc2c(N)ncnc2n1
REMARK SMILES IDX 6 1 5 2 4 3 3 4 2 5 1 6 7 7 8 8 9 9 10 10 11 11 19 12 12 13
REMARK SMILES IDX 18 14 13 15 17 16 15 17 16 18 14 19
REMARK H PARENT 14 20 14 21
ROOT
ATOM      1  C   UNL     1      47.977  57.501  20.014  1.00  0.00    +0.000 C 
ENDROOT
BRANCH   1   2
ATOM      2  C   UNL     1      48.509  58.209  21.263  1.00  0.00    +0.000 C 
BRANCH   2   3
ATOM      3  C   UNL     1      49.696  57.485  21.910  1.00  0.00    -0.000 C 
BRANCH   3   4
ATOM      4  C   UNL     1      51.015  57.688  21.158  1.00  0.00    -0.000 C 
BRANCH   4   5
ATOM      5  C   UNL     1      51.990  56.520  21.326  1.00  0.00    -0.003 C 
ATOM      6  C   UNL     1      51.615  55.576  22.459  1.00  0.00    +0.004 C 
ENDBRANCH   4   5
ENDBRANCH   3   4
ENDBRANCH   2   3
ENDBRANCH   1   2
BRANCH   1   7
ATOM      7  C   UNL     1      48.256  55.994  20.002  1.00  0.00    +0.002 C 
BRANCH   7   8
ATOM      8  C   UNL     1      48.687  55.400  18.655  1.00  0.00    +0.024 C 
BRANCH   8   9
ATOM      9  C   UNL     1      50.118  54.862  18.606  1.00  0.00    +0.144 C 
BRANCH   9  10
ATOM     10  N   UNL     1      50.219  53.456  18.951  1.00  0.00    -0.270 N 
ATOM     11  C   UNL     1      50.944  52.928  19.988  1.00  0.00    +0.123 A 
ATOM     12  N   UNL     1      49.537  52.541  18.229  1.00  0.00    -0.152 NA
ATOM     13  C   UNL     1      50.728  51.577  19.903  1.00  0.00    +0.081 A 
ATOM     14  C   UNL     1      49.859  51.379  18.801  1.00  0.00    +0.186 A 
ATOM     15  C   UNL     1      51.239  50.561  20.705  1.00  0.00    +0.137 A 
ATOM     16  N   UNL     1      49.446  50.143  18.435  1.00  0.00    -0.215 NA
ATOM     17  N   UNL     1      50.822  49.326  20.336  1.00  0.00    -0.219 NA
ATOM     18  C   UNL     1      49.982  49.200  19.255  1.00  0.00    +0.226 A 
BRANCH  15  19
ATOM     19  N   UNL     1      52.079  50.701  21.796  1.00  0.00    -0.383 N 
ATOM     20  H   UNL     1      52.259  49.853  22.314  1.00  0.00    +0.158 HD
ATOM     21  H   UNL     1      52.886  51.269  21.565  1.00  0.00    +0.158 HD
ENDBRANCH  15  19
ENDBRANCH   9  10
ENDBRANCH   8   9
ENDBRANCH   7   8
ENDBRANCH   1   7
TORSDOF 9
ENDMDL
MODEL 5
REMARK VINA RESULT:    -6.537      5.559      8.268
REMARK INTER + INTRA:         -10.335
REMARK INTER:                  -9.569
REMARK INTRA:                  -0.766
REMARK UNBOUND:                -0.550
REMARK SMILES CCCCCCCCCn1cc2c(N)ncnc2n1
REMARK SMILES IDX 6 1 5 2 4 3 3 4 2 5 1 6 7 7 8 8 9 9 10 10 11 11 19 12 12 13
REMARK SMILES IDX 18 14 13 15 17 16 15 17 16 18 14 19
REMARK H PARENT 14 20 14 21
ROOT
ATOM      1  C   UNL     1      46.429  48.687  17.818  1.00  0.00    +0.000 C 
ENDROOT
BRANCH   1   2
ATOM      2  C   UNL     1      44.932  48.557  17.522  1.00  0.00    +0.000 C 
BRANCH   2   3
ATOM      3  C   UNL     1      44.634  47.746  16.256  1.00  0.00    -0.000 C 
BRANCH   3   4
ATOM      4  C   UNL     1      45.894  47.286  15.517  1.00  0.00    -0.000 C 
BRANCH   4   5
ATOM      5  C   UNL     1      46.125  48.030  14.200  1.00  0.00    -0.003 C 
ATOM      6  C   UNL     1      45.412  47.400  13.014  1.00  0.00    +0.004 C 
ENDBRANCH   4   5
ENDBRANCH   3   4
ENDBRANCH   2   3
ENDBRANCH   1   2
BRANCH   1   7
ATOM      7  C   UNL     1      46.974  50.102  17.595  1.00  0.00    +0.002 C 
BRANCH   7   8
ATOM      8  C   UNL     1      48.041  50.247  16.503  1.00  0.00    +0.024 C 
BRANCH   8   9
ATOM      9  C   UNL     1      48.951  51.470  16.637  1.00  0.00    +0.144 C 
BRANCH   9  10
ATOM     10  N   UNL     1      49.819  51.420  17.800  1.00  0.00    -0.270 N 
ATOM     11  C   UNL     1      50.696  50.414  18.112  1.00  0.00    +0.123 A 
ATOM     12  N   UNL     1      49.818  52.447  18.678  1.00  0.00    -0.152 NA
ATOM     13  C   UNL     1      51.275  50.818  19.287  1.00  0.00    +0.081 A 
ATOM     14  C   UNL     1      50.702  52.074  19.605  1.00  0.00    +0.186 A 
ATOM     15  C   UNL     1      52.231  50.162  20.056  1.00  0.00    +0.137 A 
ATOM     16  N   UNL     1      51.057  52.755  20.720  1.00  0.00    -0.215 NA
ATOM     17  N   UNL     1      52.584  50.847  21.171  1.00  0.00    -0.219 NA
ATOM     18  C   UNL     1      51.988  52.060  21.426  1.00  0.00    +0.226 A 
BRANCH  15  19
ATOM     19  N   UNL     1      52.829  48.944  19.786  1.00  0.00    -0.383 N 
ATOM     20  H   UNL     1      53.561  48.670  20.426  1.00  0.00    +0.158 HD
ATOM     21  H   UNL     1      52.136  48.238  19.564  1.00  0.00    +0.158 HD
ENDBRANCH  15  19
ENDBRANCH   9  10
ENDBRANCH   8   9
ENDBRANCH   7   8
ENDBRANCH   1   7
TORSDOF 9
ENDMDL
