MODEL 1
REMARK VINA RESULT:    -7.000      0.000      0.000
REMARK INTER + INTRA:         -11.194
REMARK INTER:                 -10.070
REMARK INTRA:                  -1.124
REMARK UNBOUND:                -1.124
REMARK SMILES CCCCCCC(C(C)O)N1N=CC2C(N)=NC=NC21
REMARK SMILES IDX 5 1 4 2 3 3 2 4 1 5 6 6 7 7 8 8 9 9 10 10 11 12 12 13 20 14
REMARK SMILES IDX 13 15 14 16 19 17 15 18 18 19 17 20 16 21
REMARK H PARENT 10 11 16 22 16 23
ROOT
ATOM      1  C   UNL     1      49.024  55.348  18.644  1.00  0.00    +0.002 C 
ENDROOT
BRANCH   1   2
ATOM      2  C   UNL     1      48.358  56.701  18.901  1.00  0.00    +0.000 C 
BRANCH   2   3
ATOM      3  C   UNL     1      47.659  56.880  20.253  1.00  0.00    -0.000 C 
BRANCH   3   4
ATOM      4  C   UNL     1      48.129  58.088  21.069  1.00  0.00    -0.003 C 
ATOM      5  C   UNL     1      49.406  57.843  21.857  1.00  0.00    +0.004 C 
ENDBRANCH   3   4
ENDBRANCH   2   3
ENDBRANCH   1   2
BRANCH   1   6
ATOM      6  C   UNL     1      49.316  54.499  19.891  1.00  0.00    +0.029 C 
BRANCH   6   7
ATOM      7  C   UNL     1      50.782  54.538  20.384  1.00  0.00    +0.133 C 
BRANCH   7   8
ATOM      8  C   UNL     1      51.705  55.401  19.470  1.00  0.00    +0.135 C 
ATOM      9  C   UNL     1      52.392  56.558  20.189  1.00  0.00    +0.040 C 
BRANCH   8  10
ATOM     10  O   UNL     1      52.755  54.598  18.901  1.00  0.00    -0.391 OA
ATOM     11  H   UNL     1      52.338  53.990  18.265  1.00  0.00    +0.211 HD
ENDBRANCH   8  10
ENDBRANCH   7   8
BRANCH   7  12
ATOM     12  N   UNL     1      51.310  53.172  20.535  1.00  0.00    -0.266 N 
ATOM     13  N   UNL     1      51.889  52.794  21.719  1.00  0.00    -0.187 NA
ATOM     14  C   UNL     1      50.760  52.033  19.797  1.00  0.00    +0.235 C 
ATOM     15  C   UNL     1      51.954  51.504  21.683  1.00  0.00    +0.121 C 
ATOM     16  C   UNL     1      51.382  50.836  20.471  1.00  0.00    +0.145 C 
ATOM     17  N   UNL     1      51.007  52.183  18.382  1.00  0.00    -0.246 NA
ATOM     18  C   UNL     1      52.414  50.162  19.627  1.00  0.00    +0.113 C 
ATOM     19  C   UNL     1      51.886  51.450  17.810  1.00  0.00    +0.220 C 
ATOM     20  N   UNL     1      52.624  50.463  18.388  1.00  0.00    -0.224 NA
ATOM     21  N   UNL     1      53.148  49.138  20.170  1.00  0.00    -0.386 N 
ATOM     22  H   UNL     1      53.657  48.605  19.469  1.00  0.00    +0.157 HD
ATOM     23  H   UNL     1      52.705  48.556  20.871  1.00  0.00    +0.157 HD
ENDBRANCH   7  12
ENDBRANCH   6   7
ENDBRANCH   1   6
TORSDOF 8
ENDMDL
MODEL 2
REMARK VINA RESULT:    -6.884      2.100      2.819
REMARK INTER + INTRA:         -11.026
REMARK INTER:                 -10.315
REMARK INTRA:                  -0.711
REMARK UNBOUND:                -1.124
REMARK SMILES CCCCCCC(C(C)O)N1N=CC2C(N)=NC=NC21
REMARK SMILES IDX 5 1 4 2 3 3 2 4 1 5 6 6 7 7 8 8 9 9 10 10 11 12 12 13 20 14
REMARK SMILES IDX 13 15 14 16 19 17 15 18 18 19 17 20 16 21
REMARK H PARENT 10 11 16 22 16 23
ROOT
ATOM      1  C   UNL     1      48.799  57.779  21.392  1.00  0.00    +0.002 C 
ENDROOT
BRANCH   1   2
ATOM      2  C   UNL     1      47.495  57.976  20.616  1.00  0.00    +0.000 C 
BRANCH   2   3
ATOM      3  C   UNL     1      47.569  58.841  19.352  1.00  0.00    -0.000 C 
BRANCH   3   4
ATOM      4  C   UNL     1      46.967  60.243  19.493  1.00  0.00    -0.003 C 
ATOM      5  C   UNL     1      47.345  61.195  18.370  1.00  0.00    +0.004 C 
ENDBRANCH   3   4
ENDBRANCH   2   3
ENDBRANCH   1   2
BRANCH   1   6
ATOM      6  C   UNL     1      49.957  57.149  20.604  1.00  0.00    +0.029 C 
BRANCH   6   7
ATOM      7  C   UNL     1      51.246  56.893  21.419  1.00  0.00    +0.133 C 
BRANCH   7   8
ATOM      8  C   UNL     1      52.509  57.542  20.774  1.00  0.00    +0.135 C 
ATOM      9  C   UNL     1      53.113  58.681  21.590  1.00  0.00    +0.040 C 
BRANCH   8  10
ATOM     10  O   UNL     1      53.554  56.567  20.606  1.00  0.00    -0.391 OA
ATOM     11  H   UNL     1      53.876  56.646  19.691  1.00  0.00    +0.211 HD
ENDBRANCH   8  10
ENDBRANCH   7   8
BRANCH   7  12
ATOM     12  N   UNL     1      51.442  55.450  21.634  1.00  0.00    -0.266 N 
ATOM     13  N   UNL     1      51.719  54.981  22.893  1.00  0.00    -0.187 NA
ATOM     14  C   UNL     1      50.797  54.438  20.795  1.00  0.00    +0.235 C 
ATOM     15  C   UNL     1      51.516  53.705  22.846  1.00  0.00    +0.121 C 
ATOM     16  C   UNL     1      51.030  53.150  21.544  1.00  0.00    +0.145 C 
ATOM     17  N   UNL     1      51.306  54.505  19.444  1.00  0.00    -0.246 NA
ATOM     18  C   UNL     1      52.024  52.258  20.875  1.00  0.00    +0.113 C 
ATOM     19  C   UNL     1      52.094  53.593  19.017  1.00  0.00    +0.220 C 
ATOM     20  N   UNL     1      52.499  52.484  19.694  1.00  0.00    -0.224 NA
ATOM     21  N   UNL     1      52.423  51.113  21.516  1.00  0.00    -0.386 N 
ATOM     22  H   UNL     1      52.919  50.472  20.903  1.00  0.00    +0.157 HD
ATOM     23  H   UNL     1      51.755  50.651  22.122  1.00  0.00    +0.157 HD
ENDBRANCH   7  12
ENDBRANCH   6   7
ENDBRANCH   1   6
TORSDOF 8
ENDMDL
MODEL 3
REMARK VINA RESULT:    -6.804      4.128      6.254
REMARK INTER + INTRA:         -10.912
REMARK INTER:                 -10.069
REMARK INTRA:                  -0.843
REMARK UNBOUND:                -1.124
REMARK SMILES CCCCCCC(C(C)O)N1N=CC2C(N)=NC=NC21
REMARK SMILES IDX 5 1 4 2 3 3 2 4 1 5 6 6 7 7 8 8 9 9 10 10 11 12 12 13 20 14
REMARK SMILES IDX 13 15 14 16 19 17 15 18 18 19 17 20 16 21
REMARK H PARENT 10 11 16 22 16 23
ROOT
ATOM      1  C   UNL     1      46.960  49.869  17.731  1.00  0.00    +0.002 C 
ENDROOT
BRANCH   1   2
ATOM      2  C   UNL     1      45.570  49.455  17.242  1.00  0.00    +0.000 C 
BRANCH   2   3
ATOM      3  C   UNL     1      45.144  48.009  17.518  1.00  0.00    -0.000 C 
BRANCH   3   4
ATOM      4  C   UNL     1      45.624  47.438  18.857  1.00  0.00    -0.003 C 
ATOM      5  C   UNL     1      44.500  47.011  19.786  1.00  0.00    +0.004 C 
ENDBRANCH   3   4
ENDBRANCH   2   3
ENDBRANCH   1   2
BRANCH   1   6
ATOM      6  C   UNL     1      47.491  51.202  17.182  1.00  0.00    +0.029 C 
BRANCH   6   7
ATOM      7  C   UNL     1      49.004  51.224  16.859  1.00  0.00    +0.133 C 
BRANCH   7   8
ATOM      8  C   UNL     1      49.443  50.045  15.937  1.00  0.00    +0.135 C 
ATOM      9  C   UNL     1      48.702  49.983  14.605  1.00  0.00    +0.040 C 
BRANCH   8  10
ATOM     10  O   UNL     1      50.843  50.141  15.617  1.00  0.00    -0.391 OA
ATOM     11  H   UNL     1      51.335  50.046  16.452  1.00  0.00    +0.211 HD
ENDBRANCH   8  10
ENDBRANCH   7   8
BRANCH   7  12
ATOM     12  N   UNL     1      49.795  51.251  18.100  1.00  0.00    -0.266 N 
ATOM     13  N   UNL     1      50.213  50.073  18.664  1.00  0.00    -0.187 NA
ATOM     14  C   UNL     1      50.664  52.375  18.451  1.00  0.00    +0.235 C 
ATOM     15  C   UNL     1      51.129  50.398  19.517  1.00  0.00    +0.121 C 
ATOM     16  C   UNL     1      51.478  51.851  19.607  1.00  0.00    +0.145 C 
ATOM     17  N   UNL     1      49.880  53.563  18.694  1.00  0.00    -0.246 NA
ATOM     18  C   UNL     1      51.099  52.468  20.914  1.00  0.00    +0.113 C 
ATOM     19  C   UNL     1      49.732  53.992  19.890  1.00  0.00    +0.220 C 
ATOM     20  N   UNL     1      50.288  53.469  21.017  1.00  0.00    -0.224 NA
ATOM     21  N   UNL     1      51.672  51.988  22.064  1.00  0.00    -0.386 N 
ATOM     22  H   UNL     1      51.527  52.602  22.861  1.00  0.00    +0.157 HD
ATOM     23  H   UNL     1      52.615  51.622  22.008  1.00  0.00    +0.157 HD
ENDBRANCH   7  12
ENDBRANCH   6   7
ENDBRANCH   1   6
TORSDOF 8
ENDMDL
MODEL 4
REMARK VINA RESULT:    -6.660      1.988      3.248
REMARK INTER + INTRA:         -10.705
REMARK INTER:                  -9.885
REMARK INTRA:                  -0.821
REMARK UNBOUND:                -1.124
REMARK SMILES CCCCCCC(C(C)O)N1N=CC2C(N)=NC=NC21
REMARK SMILES IDX 5 1 4 2 3 3 2 4 1 5 6 6 7 7 8 8 9 9 10 10 11 12 12 13 20 14
REMARK SMILES IDX 13 15 14 16 19 17 15 18 18 19 17 20 16 21
REMARK H PARENT 10 11 16 22 16 23
ROOT
ATOM      1  C   UNL     1      48.710  57.921  21.407  1.00  0.00    +0.002 C 
ENDROOT
BRANCH   1   2
ATOM      2  C   UNL     1      47.459  57.955  20.527  1.00  0.00    +0.000 C 
BRANCH   2   3
ATOM      3  C   UNL     1      47.679  58.146  19.021  1.00  0.00    -0.000 C 
BRANCH   3   4
ATOM      4  C   UNL     1      47.637  59.600  18.542  1.00  0.00    -0.003 C 
ATOM      5  C   UNL     1      46.638  60.469  19.289  1.00  0.00    +0.004 C 
ENDBRANCH   3   4
ENDBRANCH   2   3
ENDBRANCH   1   2
BRANCH   1   6
ATOM      6  C   UNL     1      50.022  57.563  20.690  1.00  0.00    +0.029 C 
BRANCH   6   7
ATOM      7  C   UNL     1      50.835  56.418  21.339  1.00  0.00    +0.133 C 
BRANCH   7   8
ATOM      8  C   UNL     1      52.328  56.799  21.582  1.00  0.00    +0.135 C 
ATOM      9  C   UNL     1      52.630  58.284  21.412  1.00  0.00    +0.040 C 
BRANCH   8  10
ATOM     10  O   UNL     1      52.731  56.454  22.919  1.00  0.00    -0.391 OA
ATOM     11  H   UNL     1      51.920  56.374  23.452  1.00  0.00    +0.211 HD
ENDBRANCH   8  10
ENDBRANCH   7   8
BRANCH   7  12
ATOM     12  N   UNL     1      50.723  55.189  20.536  1.00  0.00    -0.266 N 
ATOM     13  N   UNL     1      49.949  55.185  19.404  1.00  0.00    -0.187 NA
ATOM     14  C   UNL     1      51.791  54.189  20.483  1.00  0.00    +0.235 C 
ATOM     15  C   UNL     1      50.291  54.124  18.749  1.00  0.00    +0.121 C 
ATOM     16  C   UNL     1      51.382  53.290  19.342  1.00  0.00    +0.145 C 
ATOM     17  N   UNL     1      51.961  53.564  21.774  1.00  0.00    -0.246 NA
ATOM     18  C   UNL     1      50.916  51.945  19.798  1.00  0.00    +0.113 C 
ATOM     19  C   UNL     1      51.566  52.361  21.953  1.00  0.00    +0.220 C 
ATOM     20  N   UNL     1      51.019  51.535  21.019  1.00  0.00    -0.224 NA
ATOM     21  N   UNL     1      50.395  51.077  18.873  1.00  0.00    -0.386 N 
ATOM     22  H   UNL     1      50.314  50.128  19.227  1.00  0.00    +0.157 HD
ATOM     23  H   UNL     1      50.753  51.121  17.926  1.00  0.00    +0.157 HD
ENDBRANCH   7  12
ENDBRANCH   6   7
ENDBRANCH   1   6
TORSDOF 8
ENDMDL
MODEL 5
REMARK VINA RESULT:    -6.256      2.617      4.133
REMARK INTER + INTRA:         -10.123
REMARK INTER:                  -9.436
REMARK INTRA:                  -0.687
REMARK UNBOUND:                -1.124
REMARK SMILES CCCCCCC(C(C)O)N1N=CC2C(N)=NC=NC21
REMARK SMILES IDX 5 1 4 2 3 3 2 4 1 5 6 6 7 7 8 8 9 9 10 10 11 12 12 13 20 14
REMARK SMILES IDX 13 15 14 16 19 17 15 18 18 19 17 20 16 21
REMARK H PARENT 10 11 16 22 16 23
ROOT
ATOM      1  C   UNL     1      47.865  53.143  16.852  1.00  0.00    +0.002 C 
ENDROOT
BRANCH   1   2
ATOM      2  C   UNL     1      48.892  54.006  17.587  1.00  0.00    +0.000 C 
BRANCH   2   3
ATOM      3  C   UNL     1      48.484  54.542  18.965  1.00  0.00    -0.000 C 
BRANCH   3   4
ATOM      4  C   UNL     1      48.759  56.033  19.185  1.00  0.00    -0.003 C 
ATOM      5  C   UNL     1      47.832  56.690  20.195  1.00  0.00    +0.004 C 
ENDBRANCH   3   4
ENDBRANCH   2   3
ENDBRANCH   1   2
BRANCH   1   6
ATOM      6  C   UNL     1      48.117  51.628  16.887  1.00  0.00    +0.029 C 
BRANCH   6   7
ATOM      7  C   UNL     1      49.583  51.199  16.641  1.00  0.00    +0.133 C 
BRANCH   7   8
ATOM      8  C   UNL     1      49.705  50.009  15.641  1.00  0.00    +0.135 C 
ATOM      9  C   UNL     1      48.385  49.592  15.000  1.00  0.00    +0.040 C 
BRANCH   8  10
ATOM     10  O   UNL     1      50.593  50.342  14.558  1.00  0.00    -0.391 OA
ATOM     11  H   UNL     1      50.056  50.376  13.747  1.00  0.00    +0.211 HD
ENDBRANCH   8  10
ENDBRANCH   7   8
BRANCH   7  12
ATOM     12  N   UNL     1      50.250  50.892  17.917  1.00  0.00    -0.266 N 
ATOM     13  N   UNL     1      49.762  49.888  18.714  1.00  0.00    -0.187 NA
ATOM     14  C   UNL     1      51.679  51.125  18.130  1.00  0.00    +0.235 C 
ATOM     15  C   UNL     1      50.700  49.628  19.565  1.00  0.00    +0.121 C 
ATOM     16  C   UNL     1      51.971  50.405  19.423  1.00  0.00    +0.145 C 
ATOM     17  N   UNL     1      51.970  52.540  18.095  1.00  0.00    -0.246 NA
ATOM     18  C   UNL     1      52.224  51.336  20.565  1.00  0.00    +0.113 C 
ATOM     19  C   UNL     1      52.247  53.158  19.180  1.00  0.00    +0.220 C 
ATOM     20  N   UNL     1      52.355  52.614  20.422  1.00  0.00    -0.224 NA
ATOM     21  N   UNL     1      52.375  50.813  21.824  1.00  0.00    -0.386 N 
ATOM     22  H   UNL     1      52.757  51.485  22.485  1.00  0.00    +0.157 HD
ATOM     23  H   UNL     1      52.785  49.891  21.909  1.00  0.00    +0.157 HD
ENDBRANCH   7  12
ENDBRANCH   6   7
ENDBRANCH   1   6
TORSDOF 8
ENDMDL
