MODEL 1
REMARK VINA RESULT:    -7.317      0.000      0.000
REMARK INTER + INTRA:         -11.256
REMARK INTER:                 -10.738
REMARK INTRA:                  -0.517
REMARK UNBOUND:                -0.517
REMARK SMILES CCCCCC[C@@H](C(C)O)n1cnc2c(N)ncnc21
REMARK SMILES IDX 5 1 4 2 3 3 2 4 1 5 6 6 7 7 8 8 9 9 10 10 11 12 12 13 20 14
REMARK SMILES IDX 13 15 19 16 14 17 18 18 15 19 17 20 16 21
REMARK H PARENT 10 11 16 22 16 23
ROOT
ATOM      1  C   UNL     1      49.536  56.963  21.246  1.00  0.00    +0.002 C 
ENDROOT
BRANCH   1   2
ATOM      2  C   UNL     1      48.555  58.118  21.429  1.00  0.00    +0.000 C 
BRANCH   2   3
ATOM      3  C   UNL     1      47.397  58.097  20.424  1.00  0.00    -0.000 C 
BRANCH   3   4
ATOM      4  C   UNL     1      47.566  58.986  19.190  1.00  0.00    -0.003 C 
ATOM      5  C   UNL     1      47.158  60.433  19.422  1.00  0.00    +0.004 C 
ENDBRANCH   3   4
ENDBRANCH   2   3
ENDBRANCH   1   2
BRANCH   1   6
ATOM      6  C   UNL     1      50.801  57.284  20.432  1.00  0.00    +0.028 C 
BRANCH   6   7
ATOM      7  C   UNL     1      52.142  56.580  20.789  1.00  0.00    +0.118 C 
BRANCH   7   8
ATOM      8  C   UNL     1      53.119  57.418  21.664  1.00  0.00    +0.134 C 
ATOM      9  C   UNL     1      52.760  58.903  21.661  1.00  0.00    +0.040 C 
BRANCH   8  10
ATOM     10  O   UNL     1      54.477  57.343  21.217  1.00  0.00    -0.391 OA
ATOM     11  H   UNL     1      55.025  57.939  21.766  1.00  0.00    +0.211 HD
ENDBRANCH   8  10
ENDBRANCH   7   8
BRANCH   7  12
ATOM     12  N   UNL     1      52.005  55.194  21.247  1.00  0.00    -0.309 N 
ATOM     13  C   UNL     1      51.678  54.715  22.485  1.00  0.00    +0.202 A 
ATOM     14  C   UNL     1      52.104  54.102  20.413  1.00  0.00    +0.165 A 
ATOM     15  N   UNL     1      51.579  53.401  22.508  1.00  0.00    -0.231 NA
ATOM     16  N   UNL     1      52.395  54.100  19.099  1.00  0.00    -0.217 NA
ATOM     17  C   UNL     1      51.856  53.004  21.218  1.00  0.00    +0.150 A 
ATOM     18  C   UNL     1      52.404  52.838  18.617  1.00  0.00    +0.226 A 
ATOM     19  C   UNL     1      51.908  51.744  20.602  1.00  0.00    +0.155 A 
ATOM     20  N   UNL     1      52.171  51.683  19.276  1.00  0.00    -0.217 NA
BRANCH  19  21
ATOM     21  N   UNL     1      51.677  50.554  21.280  1.00  0.00    -0.382 N 
ATOM     22  H   UNL     1      52.406  50.347  21.951  1.00  0.00    +0.158 HD
ATOM     23  H   UNL     1      51.352  49.804  20.682  1.00  0.00    +0.158 HD
ENDBRANCH  19  21
ENDBRANCH   7  12
ENDBRANCH   6   7
ENDBRANCH   1   6
TORSDOF 9
ENDMDL
MODEL 2
REMARK VINA RESULT:    -7.131      1.247      1.989
REMARK INTER + INTRA:         -10.983
REMARK INTER:                 -10.151
REMARK INTRA:                  -0.832
REMARK UNBOUND:                -0.517
REMARK SMILES CCCCCC[C@@H](C(C)O)n1cnc2c(N)ncnc21
REMARK SMILES IDX 5 1 4 2 3 3 2 4 1 5 6 6 7 7 8 8 9 9 10 10 11 12 12 13 20 14
REMARK SMILES IDX 13 15 19 16 14 17 18 18 15 19 17 20 16 21
REMARK H PARENT 10 11 16 22 16 23
ROOT
ATOM      1  C   UNL     1      49.592  57.168  21.262  1.00  0.00    +0.002 C 
ENDROOT
BRANCH   1   2
ATOM      2  C   UNL     1      48.292  56.982  20.485  1.00  0.00    +0.000 C 
BRANCH   2   3
ATOM      3  C   UNL     1      48.435  56.057  19.270  1.00  0.00    -0.000 C 
BRANCH   3   4
ATOM      4  C   UNL     1      48.675  54.578  19.580  1.00  0.00    -0.003 C 
ATOM      5  C   UNL     1      48.840  53.716  18.339  1.00  0.00    +0.004 C 
ENDBRANCH   3   4
ENDBRANCH   2   3
ENDBRANCH   1   2
BRANCH   1   6
ATOM      6  C   UNL     1      50.852  57.399  20.408  1.00  0.00    +0.028 C 
BRANCH   6   7
ATOM      7  C   UNL     1      52.180  56.683  20.792  1.00  0.00    +0.118 C 
BRANCH   7   8
ATOM      8  C   UNL     1      53.136  57.503  21.705  1.00  0.00    +0.134 C 
ATOM      9  C   UNL     1      52.815  58.997  21.676  1.00  0.00    +0.040 C 
BRANCH   8  10
ATOM     10  O   UNL     1      54.511  57.391  21.322  1.00  0.00    -0.391 OA
ATOM     11  H   UNL     1      55.033  58.053  21.818  1.00  0.00    +0.211 HD
ENDBRANCH   8  10
ENDBRANCH   7   8
BRANCH   7  12
ATOM     12  N   UNL     1      52.024  55.291  21.225  1.00  0.00    -0.309 N 
ATOM     13  C   UNL     1      51.626  54.796  22.436  1.00  0.00    +0.202 A 
ATOM     14  C   UNL     1      52.179  54.209  20.387  1.00  0.00    +0.165 A 
ATOM     15  N   UNL     1      51.534  53.482  22.438  1.00  0.00    -0.231 NA
ATOM     16  N   UNL     1      52.547  54.224  19.092  1.00  0.00    -0.217 NA
ATOM     17  C   UNL     1      51.889  53.101  21.163  1.00  0.00    +0.150 A 
ATOM     18  C   UNL     1      52.593  52.968  18.597  1.00  0.00    +0.226 A 
ATOM     19  C   UNL     1      51.985  51.848  20.537  1.00  0.00    +0.155 A 
ATOM     20  N   UNL     1      52.327  51.804  19.228  1.00  0.00    -0.217 NA
BRANCH  19  21
ATOM     21  N   UNL     1      51.722  50.649  21.187  1.00  0.00    -0.382 N 
ATOM     22  H   UNL     1      51.109  50.770  21.982  1.00  0.00    +0.158 HD
ATOM     23  H   UNL     1      52.541  50.063  21.300  1.00  0.00    +0.158 HD
ENDBRANCH  19  21
ENDBRANCH   7  12
ENDBRANCH   6   7
ENDBRANCH   1   6
TORSDOF 9
ENDMDL
MODEL 3
REMARK VINA RESULT:    -7.078      1.665      2.102
REMARK INTER + INTRA:         -10.905
REMARK INTER:                 -10.224
REMARK INTRA:                  -0.682
REMARK UNBOUND:                -0.517
REMARK SMILES CCCCCC[C@@H](C(C)O)n1cnc2c(N)ncnc21
REMARK SMILES IDX 5 1 4 2 3 3 2 4 1 5 6 6 7 7 8 8 9 9 10 10 11 12 12 13 20 14
REMARK SMILES IDX 13 15 19 16 14 17 18 18 15 19 17 20 16 21
REMARK H PARENT 10 11 16 22 16 23
ROOT
ATOM      1  C   UNL     1      49.062  55.096  19.167  1.00  0.00    +0.002 C 
ENDROOT
BRANCH   1   2
ATOM      2  C   UNL     1      48.635  56.506  18.769  1.00  0.00    +0.000 C 
BRANCH   2   3
ATOM      3  C   UNL     1      48.780  57.528  19.902  1.00  0.00    -0.000 C 
BRANCH   3   4
ATOM      4  C   UNL     1      47.489  58.215  20.353  1.00  0.00    -0.003 C 
ATOM      5  C   UNL     1      47.132  59.440  19.527  1.00  0.00    +0.004 C 
ENDBRANCH   3   4
ENDBRANCH   2   3
ENDBRANCH   1   2
BRANCH   1   6
ATOM      6  C   UNL     1      49.727  54.965  20.549  1.00  0.00    +0.028 C 
BRANCH   6   7
ATOM      7  C   UNL     1      51.263  54.733  20.642  1.00  0.00    +0.118 C 
BRANCH   7   8
ATOM      8  C   UNL     1      52.019  55.685  21.612  1.00  0.00    +0.134 C 
ATOM      9  C   UNL     1      51.072  56.655  22.318  1.00  0.00    +0.040 C 
BRANCH   8  10
ATOM     10  O   UNL     1      52.994  56.500  20.953  1.00  0.00    -0.391 OA
ATOM     11  H   UNL     1      53.789  56.565  21.519  1.00  0.00    +0.211 HD
ENDBRANCH   8  10
ENDBRANCH   7   8
BRANCH   7  12
ATOM     12  N   UNL     1      51.665  53.331  20.782  1.00  0.00    -0.309 N 
ATOM     13  C   UNL     1      51.682  52.537  21.895  1.00  0.00    +0.202 A 
ATOM     14  C   UNL     1      52.021  52.529  19.720  1.00  0.00    +0.165 A 
ATOM     15  N   UNL     1      52.040  51.298  21.626  1.00  0.00    -0.231 NA
ATOM     16  N   UNL     1      52.124  52.885  18.425  1.00  0.00    -0.217 NA
ATOM     17  C   UNL     1      52.267  51.282  20.268  1.00  0.00    +0.150 A 
ATOM     18  C   UNL     1      52.500  51.829  17.672  1.00  0.00    +0.226 A 
ATOM     19  C   UNL     1      52.664  50.269  19.382  1.00  0.00    +0.155 A 
ATOM     20  N   UNL     1      52.759  50.563  18.065  1.00  0.00    -0.217 NA
BRANCH  19  21
ATOM     21  N   UNL     1      52.941  48.969  19.786  1.00  0.00    -0.382 N 
ATOM     22  H   UNL     1      53.932  48.767  19.776  1.00  0.00    +0.158 HD
ATOM     23  H   UNL     1      52.309  48.281  19.394  1.00  0.00    +0.158 HD
ENDBRANCH  19  21
ENDBRANCH   7  12
ENDBRANCH   6   7
ENDBRANCH   1   6
TORSDOF 9
ENDMDL
MODEL 4
REMARK VINA RESULT:    -7.028      1.460      2.612
REMARK INTER + INTRA:         -10.832
REMARK INTER:                 -10.310
REMARK INTRA:                  -0.522
REMARK UNBOUND:                -0.517
REMARK SMILES CCCCCC[C@@H](C(C)O)n1cnc2c(N)ncnc21
REMARK SMILES IDX 5 1 4 2 3 3 2 4 1 5 6 6 7 7 8 8 9 9 10 10 11 12 12 13 20 14
REMARK SMILES IDX 13 15 19 16 14 17 18 18 15 19 17 20 16 21
REMARK H PARENT 10 11 16 22 16 23
ROOT
ATOM      1  C   UNL     1      49.155  58.275  21.705  1.00  0.00    +0.002 C 
ENDROOT
BRANCH   1   2
ATOM      2  C   UNL     1      47.888  57.776  21.016  1.00  0.00    +0.000 C 
BRANCH   2   3
ATOM      3  C   UNL     1      48.167  56.953  19.752  1.00  0.00    -0.000 C 
BRANCH   3   4
ATOM      4  C   UNL     1      48.133  55.433  19.924  1.00  0.00    -0.003 C 
ATOM      5  C   UNL     1      48.611  54.671  18.698  1.00  0.00    +0.004 C 
ENDBRANCH   3   4
ENDBRANCH   2   3
ENDBRANCH   1   2
BRANCH   1   6
ATOM      6  C   UNL     1      50.230  57.208  21.978  1.00  0.00    +0.028 C 
BRANCH   6   7
ATOM      7  C   UNL     1      51.527  57.188  21.118  1.00  0.00    +0.118 C 
BRANCH   7   8
ATOM      8  C   UNL     1      52.809  57.694  21.839  1.00  0.00    +0.134 C 
ATOM      9  C   UNL     1      53.972  57.892  20.867  1.00  0.00    +0.040 C 
BRANCH   8  10
ATOM     10  O   UNL     1      53.285  56.788  22.839  1.00  0.00    -0.391 OA
ATOM     11  H   UNL     1      53.072  57.150  23.723  1.00  0.00    +0.211 HD
ENDBRANCH   8  10
ENDBRANCH   7   8
BRANCH   7  12
ATOM     12  N   UNL     1      51.742  55.952  20.361  1.00  0.00    -0.309 N 
ATOM     13  C   UNL     1      52.053  55.784  19.039  1.00  0.00    +0.202 A 
ATOM     14  C   UNL     1      51.754  54.699  20.932  1.00  0.00    +0.165 A 
ATOM     15  N   UNL     1      52.243  54.519  18.723  1.00  0.00    -0.231 NA
ATOM     16  N   UNL     1      51.517  54.386  22.220  1.00  0.00    -0.217 NA
ATOM     17  C   UNL     1      52.047  53.828  19.897  1.00  0.00    +0.150 A 
ATOM     18  C   UNL     1      51.615  53.052  22.409  1.00  0.00    +0.226 A 
ATOM     19  C   UNL     1      52.108  52.462  20.219  1.00  0.00    +0.155 A 
ATOM     20  N   UNL     1      51.903  52.091  21.504  1.00  0.00    -0.217 NA
BRANCH  19  21
ATOM     21  N   UNL     1      52.395  51.473  19.288  1.00  0.00    -0.382 N 
ATOM     22  H   UNL     1      51.582  51.207  18.747  1.00  0.00    +0.158 HD
ATOM     23  H   UNL     1      52.989  50.736  19.651  1.00  0.00    +0.158 HD
ENDBRANCH  19  21
ENDBRANCH   7  12
ENDBRANCH   6   7
ENDBRANCH   1   6
TORSDOF 9
ENDMDL
MODEL 5
REMARK VINA RESULT:    -6.792      5.216      7.833
REMARK INTER + INTRA:         -10.486
REMARK INTER:                  -9.537
REMARK INTRA:                  -0.949
REMARK UNBOUND:                -0.517
REMARK SMILES CCCCCC[C@@H](C(C)O)n1cnc2c(N)ncnc21
REMARK SMILES IDX 5 1 4 2 3 3 2 4 1 5 6 6 7 7 8 8 9 9 10 10 11 12 12 13 20 14
REMARK SMILES IDX 13 15 19 16 14 17 18 18 15 19 17 20 16 21
REMARK H PARENT 10 11 16 22 16 23
ROOT
ATOM      1  C   UNL     1      47.675  48.957  18.594  1.00  0.00    +0.002 C 
ENDROOT
BRANCH   1   2
ATOM      2  C   UNL     1      46.381  48.154  18.498  1.00  0.00    +0.000 C 
BRANCH   2   3
ATOM      3  C   UNL     1      45.288  48.857  17.683  1.00  0.00    -0.000 C 
BRANCH   3   4
ATOM      4  C   UNL     1      44.805  48.116  16.435  1.00  0.00    -0.003 C 
ATOM      5  C   UNL     1      45.926  47.452  15.650  1.00  0.00    +0.004 C 
ENDBRANCH   3   4
ENDBRANCH   2   3
ENDBRANCH   1   2
BRANCH   1   6
ATOM      6  C   UNL     1      47.819  50.114  17.590  1.00  0.00    +0.028 C 
BRANCH   6   7
ATOM      7  C   UNL     1      49.233  50.682  17.271  1.00  0.00    +0.118 C 
BRANCH   7   8
ATOM      8  C   UNL     1      49.771  50.362  15.847  1.00  0.00    +0.134 C 
ATOM      9  C   UNL     1      49.268  49.013  15.335  1.00  0.00    +0.040 C 
BRANCH   8  10
ATOM     10  O   UNL     1      51.200  50.293  15.790  1.00  0.00    -0.391 OA
ATOM     11  H   UNL     1      51.544  51.136  15.431  1.00  0.00    +0.211 HD
ENDBRANCH   8  10
ENDBRANCH   7   8
BRANCH   7  12
ATOM     12  N   UNL     1      49.435  52.080  17.662  1.00  0.00    -0.309 N 
ATOM     13  C   UNL     1      48.548  53.121  17.664  1.00  0.00    +0.202 A 
ATOM     14  C   UNL     1      50.606  52.559  18.207  1.00  0.00    +0.165 A 
ATOM     15  N   UNL     1      49.069  54.228  18.151  1.00  0.00    -0.231 NA
ATOM     16  N   UNL     1      51.749  51.878  18.414  1.00  0.00    -0.217 NA
ATOM     17  C   UNL     1      50.362  53.893  18.484  1.00  0.00    +0.150 A 
ATOM     18  C   UNL     1      52.685  52.680  18.968  1.00  0.00    +0.226 A 
ATOM     19  C   UNL     1      51.420  54.624  19.047  1.00  0.00    +0.155 A 
ATOM     20  N   UNL     1      52.585  53.986  19.301  1.00  0.00    -0.217 NA
BRANCH  19  21
ATOM     21  N   UNL     1      51.322  55.969  19.381  1.00  0.00    -0.382 N 
ATOM     22  H   UNL     1      50.902  56.518  18.644  1.00  0.00    +0.158 HD
ATOM     23  H   UNL     1      52.152  56.334  19.835  1.00  0.00    +0.158 HD
ENDBRANCH  19  21
ENDBRANCH   7  12
ENDBRANCH   6   7
ENDBRANCH   1   6
TORSDOF 9
ENDMDL
