MODEL 1
REMARK VINA RESULT:    -6.972      0.000      0.000
REMARK INTER + INTRA:         -11.016
REMARK INTER:                 -10.233
REMARK INTRA:                  -0.783
REMARK UNBOUND:                -0.783
REMARK SMILES CCCCCC[C@H](C(C)O)n1cnc2c(N)ncnc21
REMARK SMILES IDX 5 1 4 2 3 3 2 4 1 5 6 6 7 7 8 8 9 9 10 10 11 12 12 13 20 14
REMARK SMILES IDX 13 15 19 16 14 17 18 18 15 19 17 20 16 21
REMARK H PARENT 10 11 16 22 16 23
ROOT
ATOM      1  C   UNL     1      49.562  57.949  21.019  1.00  0.00    +0.002 C 
ENDROOT
BRANCH   1   2
ATOM      2  C   UNL     1      48.221  57.296  20.680  1.00  0.00    +0.000 C 
BRANCH   2   3
ATOM      3  C   UNL     1      48.279  56.402  19.436  1.00  0.00    -0.000 C 
BRANCH   3   4
ATOM      4  C   UNL     1      48.464  54.905  19.697  1.00  0.00    -0.003 C 
ATOM      5  C   UNL     1      48.611  54.080  18.428  1.00  0.00    +0.004 C 
ENDBRANCH   3   4
ENDBRANCH   2   3
ENDBRANCH   1   2
BRANCH   1   6
ATOM      6  C   UNL     1      50.338  57.214  22.115  1.00  0.00    +0.028 C 
BRANCH   6   7
ATOM      7  C   UNL     1      51.831  56.922  21.842  1.00  0.00    +0.118 C 
BRANCH   7   8
ATOM      8  C   UNL     1      52.710  58.133  21.425  1.00  0.00    +0.134 C 
ATOM      9  C   UNL     1      54.189  57.786  21.295  1.00  0.00    +0.040 C 
BRANCH   8  10
ATOM     10  O   UNL     1      52.593  59.220  22.341  1.00  0.00    -0.391 OA
ATOM     11  H   UNL     1      52.958  58.905  23.196  1.00  0.00    +0.211 HD
ENDBRANCH   8  10
ENDBRANCH   7   8
BRANCH   7  12
ATOM     12  N   UNL     1      51.924  55.857  20.829  1.00  0.00    -0.309 N 
ATOM     13  C   UNL     1      52.063  56.053  19.478  1.00  0.00    +0.202 A 
ATOM     14  C   UNL     1      51.909  54.505  21.049  1.00  0.00    +0.165 A 
ATOM     15  N   UNL     1      52.134  54.916  18.819  1.00  0.00    -0.231 NA
ATOM     16  N   UNL     1      51.794  53.860  22.224  1.00  0.00    -0.217 NA
ATOM     17  C   UNL     1      52.033  53.938  19.789  1.00  0.00    +0.150 A 
ATOM     18  C   UNL     1      51.832  52.522  22.039  1.00  0.00    +0.226 A 
ATOM     19  C   UNL     1      52.043  52.535  19.728  1.00  0.00    +0.155 A 
ATOM     20  N   UNL     1      51.955  51.836  20.882  1.00  0.00    -0.217 NA
BRANCH  19  21
ATOM     21  N   UNL     1      52.158  51.827  18.538  1.00  0.00    -0.382 N 
ATOM     22  H   UNL     1      52.644  50.949  18.662  1.00  0.00    +0.158 HD
ATOM     23  H   UNL     1      52.419  52.405  17.748  1.00  0.00    +0.158 HD
ENDBRANCH  19  21
ENDBRANCH   7  12
ENDBRANCH   6   7
ENDBRANCH   1   6
TORSDOF 9
ENDMDL
MODEL 2
REMARK VINA RESULT:    -6.847      3.365      5.860
REMARK INTER + INTRA:         -10.833
REMARK INTER:                 -10.203
REMARK INTRA:                  -0.630
REMARK UNBOUND:                -0.783
REMARK SMILES CCCCCC[C@H](C(C)O)n1cnc2c(N)ncnc21
REMARK SMILES IDX 5 1 4 2 3 3 2 4 1 5 6 6 7 7 8 8 9 9 10 10 11 12 12 13 20 14
REMARK SMILES IDX 13 15 19 16 14 17 18 18 15 19 17 20 16 21
REMARK H PARENT 10 11 16 22 16 23
ROOT
ATOM      1  C   UNL     1      50.032  51.333  17.887  1.00  0.00    +0.002 C 
ENDROOT
BRANCH   1   2
ATOM      2  C   UNL     1      48.821  50.436  17.622  1.00  0.00    +0.000 C 
BRANCH   2   3
ATOM      3  C   UNL     1      48.655  49.319  18.658  1.00  0.00    -0.000 C 
BRANCH   3   4
ATOM      4  C   UNL     1      47.353  48.518  18.574  1.00  0.00    -0.003 C 
ATOM      5  C   UNL     1      46.274  49.196  17.744  1.00  0.00    +0.004 C 
ENDBRANCH   3   4
ENDBRANCH   2   3
ENDBRANCH   1   2
BRANCH   1   6
ATOM      6  C   UNL     1      50.179  51.741  19.355  1.00  0.00    +0.028 C 
BRANCH   6   7
ATOM      7  C   UNL     1      51.616  51.863  19.908  1.00  0.00    +0.118 C 
BRANCH   7   8
ATOM      8  C   UNL     1      52.170  50.635  20.682  1.00  0.00    +0.134 C 
ATOM      9  C   UNL     1      52.877  49.626  19.784  1.00  0.00    +0.040 C 
BRANCH   8  10
ATOM     10  O   UNL     1      51.145  49.946  21.396  1.00  0.00    -0.391 OA
ATOM     11  H   UNL     1      51.185  49.009  21.106  1.00  0.00    +0.211 HD
ENDBRANCH   8  10
ENDBRANCH   7   8
BRANCH   7  12
ATOM     12  N   UNL     1      51.695  53.069  20.750  1.00  0.00    -0.309 N 
ATOM     13  C   UNL     1      51.676  53.085  22.122  1.00  0.00    +0.202 A 
ATOM     14  C   UNL     1      51.821  54.366  20.325  1.00  0.00    +0.165 A 
ATOM     15  N   UNL     1      51.777  54.307  22.602  1.00  0.00    -0.231 NA
ATOM     16  N   UNL     1      51.886  54.818  19.059  1.00  0.00    -0.217 NA
ATOM     17  C   UNL     1      51.862  55.119  21.488  1.00  0.00    +0.150 A 
ATOM     18  C   UNL     1      52.020  56.162  19.040  1.00  0.00    +0.226 A 
ATOM     19  C   UNL     1      51.987  56.509  21.334  1.00  0.00    +0.155 A 
ATOM     20  N   UNL     1      52.081  57.016  20.085  1.00  0.00    -0.217 NA
BRANCH  19  21
ATOM     21  N   UNL     1      52.039  57.391  22.407  1.00  0.00    -0.382 N 
ATOM     22  H   UNL     1      51.801  56.943  23.281  1.00  0.00    +0.158 HD
ATOM     23  H   UNL     1      51.622  58.294  22.208  1.00  0.00    +0.158 HD
ENDBRANCH  19  21
ENDBRANCH   7  12
ENDBRANCH   6   7
ENDBRANCH   1   6
TORSDOF 9
ENDMDL
MODEL 3
REMARK VINA RESULT:    -6.758      1.778      3.456
REMARK INTER + INTRA:         -10.702
REMARK INTER:                 -10.027
REMARK INTRA:                  -0.675
REMARK UNBOUND:                -0.783
REMARK SMILES CCCCCC[C@H](C(C)O)n1cnc2c(N)ncnc21
REMARK SMILES IDX 5 1 4 2 3 3 2 4 1 5 6 6 7 7 8 8 9 9 10 10 11 12 12 13 20 14
REMARK SMILES IDX 13 15 19 16 14 17 18 18 15 19 17 20 16 21
REMARK H PARENT 10 11 16 22 16 23
ROOT
ATOM      1  C   UNL     1      48.600  55.517  19.930  1.00  0.00    +0.002 C 
ENDROOT
BRANCH   1   2
ATOM      2  C   UNL     1      48.289  56.658  18.961  1.00  0.00    +0.000 C 
BRANCH   2   3
ATOM      3  C   UNL     1      48.283  58.038  19.629  1.00  0.00    -0.000 C 
BRANCH   3   4
ATOM      4  C   UNL     1      47.873  58.064  21.103  1.00  0.00    -0.003 C 
ATOM      5  C   UNL     1      49.039  58.291  22.054  1.00  0.00    +0.004 C 
ENDBRANCH   3   4
ENDBRANCH   2   3
ENDBRANCH   1   2
BRANCH   1   6
ATOM      6  C   UNL     1      49.814  54.679  19.515  1.00  0.00    +0.028 C 
BRANCH   6   7
ATOM      7  C   UNL     1      51.016  54.659  20.486  1.00  0.00    +0.118 C 
BRANCH   7   8
ATOM      8  C   UNL     1      52.203  55.599  20.141  1.00  0.00    +0.134 C 
ATOM      9  C   UNL     1      52.231  56.868  20.986  1.00  0.00    +0.040 C 
BRANCH   8  10
ATOM     10  O   UNL     1      52.200  55.985  18.768  1.00  0.00    -0.391 OA
ATOM     11  H   UNL     1      52.969  56.580  18.644  1.00  0.00    +0.211 HD
ENDBRANCH   8  10
ENDBRANCH   7   8
BRANCH   7  12
ATOM     12  N   UNL     1      51.491  53.271  20.616  1.00  0.00    -0.309 N 
ATOM     13  C   UNL     1      51.555  52.558  21.786  1.00  0.00    +0.202 A 
ATOM     14  C   UNL     1      51.927  52.449  19.609  1.00  0.00    +0.165 A 
ATOM     15  N   UNL     1      52.007  51.336  21.595  1.00  0.00    -0.231 NA
ATOM     16  N   UNL     1      52.028  52.732  18.297  1.00  0.00    -0.217 NA
ATOM     17  C   UNL     1      52.250  51.257  20.238  1.00  0.00    +0.150 A 
ATOM     18  C   UNL     1      52.489  51.661  17.614  1.00  0.00    +0.226 A 
ATOM     19  C   UNL     1      52.735  50.224  19.419  1.00  0.00    +0.155 A 
ATOM     20  N   UNL     1      52.834  50.445  18.089  1.00  0.00    -0.217 NA
BRANCH  19  21
ATOM     21  N   UNL     1      53.101  48.975  19.907  1.00  0.00    -0.382 N 
ATOM     22  H   UNL     1      53.111  48.270  19.182  1.00  0.00    +0.158 HD
ATOM     23  H   UNL     1      52.661  48.741  20.789  1.00  0.00    +0.158 HD
ENDBRANCH  19  21
ENDBRANCH   7  12
ENDBRANCH   6   7
ENDBRANCH   1   6
TORSDOF 9
ENDMDL
MODEL 4
REMARK VINA RESULT:    -6.736      1.866      2.601
REMARK INTER + INTRA:         -10.669
REMARK INTER:                 -10.240
REMARK INTRA:                  -0.429
REMARK UNBOUND:                -0.783
REMARK SMILES CCCCCC[C@H](C(C)O)n1cnc2c(N)ncnc21
REMARK SMILES IDX 5 1 4 2 3 3 2 4 1 5 6 6 7 7 8 8 9 9 10 10 11 12 12 13 20 14
REMARK SMILES IDX 13 15 19 16 14 17 18 18 15 19 17 20 16 21
REMARK H PARENT 10 11 16 22 16 23
ROOT
ATOM      1  C   UNL     1      48.608  57.608  21.383  1.00  0.00    +0.002 C 
ENDROOT
BRANCH   1   2
ATOM      2  C   UNL     1      47.406  58.137  20.597  1.00  0.00    +0.000 C 
BRANCH   2   3
ATOM      3  C   UNL     1      47.792  59.130  19.495  1.00  0.00    -0.000 C 
BRANCH   3   4
ATOM      4  C   UNL     1      46.675  60.059  19.013  1.00  0.00    -0.003 C 
ATOM      5  C   UNL     1      46.880  61.513  19.412  1.00  0.00    +0.004 C 
ENDBRANCH   3   4
ENDBRANCH   2   3
ENDBRANCH   1   2
BRANCH   1   6
ATOM      6  C   UNL     1      49.557  56.751  20.542  1.00  0.00    +0.028 C 
BRANCH   6   7
ATOM      7  C   UNL     1      50.577  55.878  21.306  1.00  0.00    +0.118 C 
BRANCH   7   8
ATOM      8  C   UNL     1      51.759  56.623  21.985  1.00  0.00    +0.134 C 
ATOM      9  C   UNL     1      52.882  56.978  21.016  1.00  0.00    +0.040 C 
BRANCH   8  10
ATOM     10  O   UNL     1      52.324  55.869  23.056  1.00  0.00    -0.391 OA
ATOM     11  H   UNL     1      51.690  55.146  23.252  1.00  0.00    +0.211 HD
ENDBRANCH   8  10
ENDBRANCH   7   8
BRANCH   7  12
ATOM     12  N   UNL     1      51.089  54.843  20.392  1.00  0.00    -0.309 N 
ATOM     13  C   UNL     1      51.263  54.992  19.039  1.00  0.00    +0.202 A 
ATOM     14  C   UNL     1      51.497  53.577  20.722  1.00  0.00    +0.165 A 
ATOM     15  N   UNL     1      51.751  53.904  18.482  1.00  0.00    -0.231 NA
ATOM     16  N   UNL     1      51.506  53.003  21.939  1.00  0.00    -0.217 NA
ATOM     17  C   UNL     1      51.897  53.008  19.523  1.00  0.00    +0.150 A 
ATOM     18  C   UNL     1      51.990  51.744  21.868  1.00  0.00    +0.226 A 
ATOM     19  C   UNL     1      52.365  51.685  19.578  1.00  0.00    +0.155 A 
ATOM     20  N   UNL     1      52.419  51.068  20.780  1.00  0.00    -0.217 NA
BRANCH  19  21
ATOM     21  N   UNL     1      52.797  50.984  18.459  1.00  0.00    -0.382 N 
ATOM     22  H   UNL     1      53.329  50.160  18.707  1.00  0.00    +0.158 HD
ATOM     23  H   UNL     1      53.161  51.580  17.725  1.00  0.00    +0.158 HD
ENDBRANCH  19  21
ENDBRANCH   7  12
ENDBRANCH   6   7
ENDBRANCH   1   6
TORSDOF 9
ENDMDL
MODEL 5
REMARK VINA RESULT:    -6.667      5.041      7.464
REMARK INTER + INTRA:         -10.568
REMARK INTER:                 -10.106
REMARK INTRA:                  -0.463
REMARK UNBOUND:                -0.783
REMARK SMILES CCCCCC[C@H](C(C)O)n1cnc2c(N)ncnc21
REMARK SMILES IDX 5 1 4 2 3 3 2 4 1 5 6 6 7 7 8 8 9 9 10 10 11 12 12 13 20 14
REMARK SMILES IDX 13 15 19 16 14 17 18 18 15 19 17 20 16 21
REMARK H PARENT 10 11 16 22 16 23
ROOT
ATOM      1  C   UNL     1      46.336  49.841  17.280  1.00  0.00    +0.002 C 
ENDROOT
BRANCH   1   2
ATOM      2  C   UNL     1      45.396  48.803  16.664  1.00  0.00    +0.000 C 
BRANCH   2   3
ATOM      3  C   UNL     1      44.490  48.117  17.692  1.00  0.00    -0.000 C 
BRANCH   3   4
ATOM      4  C   UNL     1      45.201  47.249  18.734  1.00  0.00    -0.003 C 
ATOM      5  C   UNL     1      44.369  46.992  19.981  1.00  0.00    +0.004 C 
ENDBRANCH   3   4
ENDBRANCH   2   3
ENDBRANCH   1   2
BRANCH   1   6
ATOM      6  C   UNL     1      47.780  49.350  17.416  1.00  0.00    +0.028 C 
BRANCH   6   7
ATOM      7  C   UNL     1      48.894  50.417  17.327  1.00  0.00    +0.118 C 
BRANCH   7   8
ATOM      8  C   UNL     1      49.795  50.376  16.062  1.00  0.00    +0.134 C 
ATOM      9  C   UNL     1      49.550  49.152  15.187  1.00  0.00    +0.040 C 
BRANCH   8  10
ATOM     10  O   UNL     1      51.183  50.408  16.393  1.00  0.00    -0.391 OA
ATOM     11  H   UNL     1      51.587  51.101  15.829  1.00  0.00    +0.211 HD
ENDBRANCH   8  10
ENDBRANCH   7   8
BRANCH   7  12
ATOM     12  N   UNL     1      49.722  50.334  18.542  1.00  0.00    -0.309 N 
ATOM     13  C   UNL     1      49.945  49.197  19.278  1.00  0.00    +0.202 A 
ATOM     14  C   UNL     1      50.424  51.351  19.134  1.00  0.00    +0.165 A 
ATOM     15  N   UNL     1      50.739  49.422  20.304  1.00  0.00    -0.231 NA
ATOM     16  N   UNL     1      50.499  52.638  18.747  1.00  0.00    -0.217 NA
ATOM     17  C   UNL     1      51.042  50.767  20.229  1.00  0.00    +0.150 A 
ATOM     18  C   UNL     1      51.301  53.339  19.578  1.00  0.00    +0.226 A 
ATOM     19  C   UNL     1      51.837  51.606  21.026  1.00  0.00    +0.155 A 
ATOM     20  N   UNL     1      51.967  52.904  20.670  1.00  0.00    -0.217 NA
BRANCH  19  21
ATOM     21  N   UNL     1      52.514  51.164  22.156  1.00  0.00    -0.382 N 
ATOM     22  H   UNL     1      53.175  50.430  21.941  1.00  0.00    +0.158 HD
ATOM     23  H   UNL     1      51.915  51.042  22.964  1.00  0.00    +0.158 HD
ENDBRANCH  19  21
ENDBRANCH   7  12
ENDBRANCH   6   7
ENDBRANCH   1   6
TORSDOF 9
ENDMDL
