MODEL 1
REMARK VINA RESULT:    -6.553      0.000      0.000
REMARK INTER + INTRA:          -9.505
REMARK INTER:                  -9.234
REMARK INTRA:                  -0.271
REMARK UNBOUND:                -0.271
REMARK SMILES OC[C@H]1O[C@@H](n2cnc3c2NC=NC[C@H]3O)[C@H](O)[C@@H]1O
REMARK SMILES IDX 3 1 4 2 5 3 17 4 19 5 2 6 1 7 20 9 6 11 7 12 10 13 8 14 9 15
REMARK SMILES IDX 11 16 12 17 13 18 14 20 15 22 16 24 18 26
REMARK H PARENT 1 8 20 10 11 19 16 25 18 27
REMARK Flexibility Score:   20.900
ROOT
ATOM      1  C   UNL     1      50.862  50.068  19.147  1.00  0.00    +0.178 C 
ATOM      2  O   UNL     1      50.296  51.267  19.738  1.00  0.00    -0.347 OA
ATOM      3  C   UNL     1      51.123  52.396  19.346  1.00  0.00    +0.253 C 
ATOM      4  C   UNL     1      52.405  51.812  18.735  1.00  0.00    +0.195 C 
ATOM      5  C   UNL     1      51.877  50.538  18.108  1.00  0.00    +0.179 C 
ENDROOT
BRANCH   1   6
ATOM      6  C   UNL     1      51.485  49.232  20.275  1.00  0.00    +0.191 C 
BRANCH   6   7
ATOM      7  O   UNL     1      52.720  48.665  19.870  1.00  0.00    -0.394 OA
ATOM      8  H   UNL     1      52.799  48.803  18.907  1.00  0.00    +0.210 HD
ENDBRANCH   6   7
ENDBRANCH   1   6
BRANCH   5   9
ATOM      9  O   UNL     1      51.204  50.876  16.883  1.00  0.00    -0.387 OA
ATOM     10  H   UNL     1      50.248  50.861  17.093  1.00  0.00    +0.211 HD
ENDBRANCH   5   9
BRANCH   3  11
ATOM     11  N   UNL     1      51.401  53.243  20.502  1.00  0.00    -0.287 N 
ATOM     12  C   UNL     1      51.283  52.818  21.803  1.00  0.00    +0.203 A 
ATOM     13  C   UNL     1      51.745  54.570  20.551  1.00  0.00    +0.139 A 
ATOM     14  N   UNL     1      51.427  53.804  22.657  1.00  0.00    -0.237 NA
ATOM     15  C   UNL     1      51.731  54.904  21.886  1.00  0.00    +0.113 A 
BRANCH  13  16
ATOM     16  N   UNL     1      51.980  55.332  19.461  1.00  0.00    -0.331 N 
ATOM     17  C   UNL     1      52.188  56.690  19.450  1.00  0.00    +0.192 C 
ATOM     18  N   UNL     1      52.551  57.540  20.334  1.00  0.00    -0.272 NA
ATOM     19  H   UNL     1      51.884  54.892  18.546  1.00  0.00    +0.169 HD
BRANCH  18  20
ATOM     20  C   UNL     1      52.971  57.093  21.677  1.00  0.00    +0.182 CG0
ATOM     21  G   UNL     1      51.967  56.244  22.479  1.00  0.00    +0.000 G0
ENDBRANCH  18  20
ENDBRANCH  13  16
BRANCH  15  22
ATOM     22  C   UNL     1      51.962  56.250  22.481  1.00  0.00    +0.188 CG0
ATOM     23  G   UNL     1      52.979  57.088  21.686  1.00  0.00    +0.000 G0
BRANCH  22  24
ATOM     24  O   UNL     1      50.730  56.959  22.663  1.00  0.00    -0.385 OA
ATOM     25  H   UNL     1      50.074  56.453  22.151  1.00  0.00    +0.211 HD
ENDBRANCH  22  24
ENDBRANCH  15  22
ENDBRANCH   3  11
BRANCH   4  26
ATOM     26  O   UNL     1      52.998  52.653  17.743  1.00  0.00    -0.386 OA
ATOM     27  H   UNL     1      52.304  52.885  17.096  1.00  0.00    +0.211 HD
ENDBRANCH   4  26
TORSDOF 6
ENDMDL
MODEL 2
REMARK VINA RESULT:    -6.459      5.109      7.541
REMARK INTER + INTRA:          -9.373
REMARK INTER:                  -9.218
REMARK INTRA:                  -0.156
REMARK UNBOUND:                -0.271
REMARK SMILES OC[C@H]1O[C@@H](n2cnc3c2NC=NC[C@H]3O)[C@H](O)[C@@H]1O
REMARK SMILES IDX 3 1 4 2 5 3 17 4 19 5 2 6 1 7 20 9 6 11 7 12 10 13 8 14 9 15
REMARK SMILES IDX 11 16 12 17 13 18 14 20 15 22 16 24 18 26
REMARK H PARENT 1 8 20 10 11 19 16 25 18 27
REMARK Flexibility Score:   20.900
ROOT
ATOM      1  C   UNL     1      51.537  50.754  21.139  1.00  0.00    +0.178 C 
ATOM      2  O   UNL     1      50.505  49.974  20.479  1.00  0.00    -0.347 OA
ATOM      3  C   UNL     1      50.867  49.846  19.077  1.00  0.00    +0.253 C 
ATOM      4  C   UNL     1      52.014  50.835  18.825  1.00  0.00    +0.195 C 
ATOM      5  C   UNL     1      52.713  50.822  20.169  1.00  0.00    +0.179 C 
ENDROOT
BRANCH   1   6
ATOM      6  C   UNL     1      50.946  52.129  21.482  1.00  0.00    +0.191 C 
BRANCH   6   7
ATOM      7  O   UNL     1      51.688  52.764  22.511  1.00  0.00    -0.394 OA
ATOM      8  H   UNL     1      52.350  53.336  22.079  1.00  0.00    +0.210 HD
ENDBRANCH   6   7
ENDBRANCH   1   6
BRANCH   5   9
ATOM      9  O   UNL     1      53.498  49.622  20.264  1.00  0.00    -0.387 OA
ATOM     10  H   UNL     1      53.603  49.299  19.345  1.00  0.00    +0.211 HD
ENDBRANCH   5   9
BRANCH   3  11
ATOM     11  N   UNL     1      49.709  50.119  18.230  1.00  0.00    -0.287 N 
ATOM     12  C   UNL     1      49.200  51.377  18.020  1.00  0.00    +0.203 A 
ATOM     13  C   UNL     1      48.888  49.244  17.565  1.00  0.00    +0.139 A 
ATOM     14  N   UNL     1      48.066  51.343  17.359  1.00  0.00    -0.237 NA
ATOM     15  C   UNL     1      47.867  50.014  17.056  1.00  0.00    +0.113 A 
BRANCH  13  16
ATOM     16  N   UNL     1      49.085  47.909  17.514  1.00  0.00    -0.331 N 
ATOM     17  C   UNL     1      48.225  46.981  16.981  1.00  0.00    +0.192 C 
ATOM     18  N   UNL     1      47.260  47.043  16.142  1.00  0.00    -0.272 NA
ATOM     19  H   UNL     1      49.889  47.530  18.016  1.00  0.00    +0.169 HD
BRANCH  18  20
ATOM     20  C   UNL     1      46.962  48.304  15.434  1.00  0.00    +0.182 CG0
ATOM     21  G   UNL     1      46.659  49.540  16.299  1.00  0.00    +0.000 G0
ENDBRANCH  18  20
ENDBRANCH  13  16
BRANCH  15  22
ATOM     22  C   UNL     1      46.668  49.542  16.309  1.00  0.00    +0.188 CG0
ATOM     23  G   UNL     1      46.956  48.310  15.433  1.00  0.00    +0.000 G0
BRANCH  22  24
ATOM     24  O   UNL     1      45.562  49.309  17.190  1.00  0.00    -0.385 OA
ATOM     25  H   UNL     1      45.644  49.995  17.877  1.00  0.00    +0.211 HD
ENDBRANCH  22  24
ENDBRANCH  15  22
ENDBRANCH   3  11
BRANCH   4  26
ATOM     26  O   UNL     1      52.907  50.420  17.789  1.00  0.00    -0.386 OA
ATOM     27  H   UNL     1      53.817  50.484  18.137  1.00  0.00    +0.211 HD
ENDBRANCH   4  26
TORSDOF 6
ENDMDL
MODEL 3
REMARK VINA RESULT:    -5.701      3.361      6.460
REMARK INTER + INTRA:          -8.305
REMARK INTER:                  -8.012
REMARK INTRA:                  -0.293
REMARK UNBOUND:                -0.271
REMARK SMILES OC[C@H]1O[C@@H](n2cnc3c2NC=NC[C@H]3O)[C@H](O)[C@@H]1O
REMARK SMILES IDX 3 1 4 2 5 3 17 4 19 5 2 6 1 7 20 9 6 11 7 12 10 13 8 14 9 15
REMARK SMILES IDX 11 16 12 17 13 18 14 20 15 22 16 24 18 26
REMARK H PARENT 1 8 20 10 11 19 16 25 18 27
REMARK Flexibility Score:   20.900
ROOT
ATOM      1  C   UNL     1      51.488  56.978  20.814  1.00  0.00    +0.178 C 
ATOM      2  O   UNL     1      51.872  56.135  19.696  1.00  0.00    -0.347 OA
ATOM      3  C   UNL     1      50.699  55.385  19.276  1.00  0.00    +0.253 C 
ATOM      4  C   UNL     1      49.641  55.569  20.372  1.00  0.00    +0.195 C 
ATOM      5  C   UNL     1      49.962  56.969  20.858  1.00  0.00    +0.179 C 
ENDROOT
BRANCH   1   6
ATOM      6  C   UNL     1      52.139  56.408  22.083  1.00  0.00    +0.191 C 
BRANCH   6   7
ATOM      7  O   UNL     1      53.286  57.158  22.451  1.00  0.00    -0.394 OA
ATOM      8  H   UNL     1      53.046  57.687  23.235  1.00  0.00    +0.210 HD
ENDBRANCH   6   7
ENDBRANCH   1   6
BRANCH   5   9
ATOM      9  O   UNL     1      49.438  57.913  19.909  1.00  0.00    -0.387 OA
ATOM     10  H   UNL     1      49.213  58.713  20.428  1.00  0.00    +0.211 HD
ENDBRANCH   5   9
BRANCH   3  11
ATOM     11  N   UNL     1      51.044  53.980  19.075  1.00  0.00    -0.287 N 
ATOM     12  C   UNL     1      52.251  53.434  19.437  1.00  0.00    +0.203 A 
ATOM     13  C   UNL     1      50.328  52.984  18.462  1.00  0.00    +0.139 A 
ATOM     14  N   UNL     1      52.381  52.200  19.006  1.00  0.00    -0.237 NA
ATOM     15  C   UNL     1      51.178  51.903  18.406  1.00  0.00    +0.113 A 
BRANCH  13  16
ATOM     16  N   UNL     1      49.071  53.133  17.992  1.00  0.00    -0.331 N 
ATOM     17  C   UNL     1      48.367  52.216  17.252  1.00  0.00    +0.192 C 
ATOM     18  N   UNL     1      48.465  50.952  17.077  1.00  0.00    -0.272 NA
ATOM     19  H   UNL     1      48.635  54.050  18.091  1.00  0.00    +0.169 HD
BRANCH  18  20
ATOM     20  C   UNL     1      49.436  50.160  17.859  1.00  0.00    +0.182 CG0
ATOM     21  G   UNL     1      50.913  50.586  17.781  1.00  0.00    +0.000 G0
ENDBRANCH  18  20
ENDBRANCH  13  16
BRANCH  15  22
ATOM     22  C   UNL     1      50.916  50.582  17.769  1.00  0.00    +0.188 CG0
ATOM     23  G   UNL     1      49.438  50.160  17.854  1.00  0.00    +0.000 G0
BRANCH  22  24
ATOM     24  O   UNL     1      51.391  50.550  16.417  1.00  0.00    -0.385 OA
ATOM     25  H   UNL     1      52.314  50.855  16.471  1.00  0.00    +0.211 HD
ENDBRANCH  22  24
ENDBRANCH  15  22
ENDBRANCH   3  11
BRANCH   4  26
ATOM     26  O   UNL     1      48.298  55.502  19.886  1.00  0.00    -0.386 OA
ATOM     27  H   UNL     1      48.144  54.593  19.563  1.00  0.00    +0.211 HD
ENDBRANCH   4  26
TORSDOF 6
ENDMDL
MODEL 4
REMARK VINA RESULT:    -5.669      2.945      6.154
REMARK INTER + INTRA:          -8.259
REMARK INTER:                  -8.023
REMARK INTRA:                  -0.237
REMARK UNBOUND:                -0.271
REMARK SMILES OC[C@H]1O[C@@H](n2cnc3c2NC=NC[C@H]3O)[C@H](O)[C@@H]1O
REMARK SMILES IDX 3 1 4 2 5 3 17 4 19 5 2 6 1 7 20 9 6 11 7 12 10 13 8 14 9 15
REMARK SMILES IDX 11 16 12 17 13 18 14 20 15 22 16 24 18 26
REMARK H PARENT 1 8 20 10 11 19 16 25 18 27
REMARK Flexibility Score:   20.900
ROOT
ATOM      1  C   UNL     1      51.726  56.770  20.671  1.00  0.00    +0.178 C 
ATOM      2  O   UNL     1      50.835  55.705  20.245  1.00  0.00    -0.347 OA
ATOM      3  C   UNL     1      50.776  54.716  21.309  1.00  0.00    +0.253 C 
ATOM      4  C   UNL     1      51.904  55.058  22.293  1.00  0.00    +0.195 C 
ATOM      5  C   UNL     1      51.955  56.567  22.167  1.00  0.00    +0.179 C 
ENDROOT
BRANCH   1   6
ATOM      6  C   UNL     1      53.012  56.675  19.837  1.00  0.00    +0.191 C 
BRANCH   6   7
ATOM      7  O   UNL     1      54.149  57.031  20.607  1.00  0.00    -0.394 OA
ATOM      8  H   UNL     1      54.362  57.959  20.394  1.00  0.00    +0.210 HD
ENDBRANCH   6   7
ENDBRANCH   1   6
BRANCH   5   9
ATOM      9  O   UNL     1      50.860  57.126  22.912  1.00  0.00    -0.387 OA
ATOM     10  H   UNL     1      50.317  56.363  23.197  1.00  0.00    +0.211 HD
ENDBRANCH   5   9
BRANCH   3  11
ATOM     11  N   UNL     1      50.917  53.372  20.756  1.00  0.00    -0.287 N 
ATOM     12  C   UNL     1      51.718  52.402  21.308  1.00  0.00    +0.203 A 
ATOM     13  C   UNL     1      50.381  52.837  19.612  1.00  0.00    +0.139 A 
ATOM     14  N   UNL     1      51.804  51.340  20.540  1.00  0.00    -0.237 NA
ATOM     15  C   UNL     1      50.959  51.595  19.482  1.00  0.00    +0.113 A 
BRANCH  13  16
ATOM     16  N   UNL     1      49.513  53.486  18.807  1.00  0.00    -0.331 N 
ATOM     17  C   UNL     1      49.060  53.053  17.585  1.00  0.00    +0.192 C 
ATOM     18  N   UNL     1      48.999  51.909  17.015  1.00  0.00    -0.272 NA
ATOM     19  H   UNL     1      49.249  54.437  19.065  1.00  0.00    +0.169 HD
BRANCH  18  20
ATOM     20  C   UNL     1      49.364  50.683  17.752  1.00  0.00    +0.182 CG0
ATOM     21  G   UNL     1      50.775  50.628  18.366  1.00  0.00    +0.000 G0
ENDBRANCH  18  20
ENDBRANCH  13  16
BRANCH  15  22
ATOM     22  C   UNL     1      50.776  50.627  18.365  1.00  0.00    +0.188 CG0
ATOM     23  G   UNL     1      49.364  50.682  17.753  1.00  0.00    +0.000 G0
BRANCH  22  24
ATOM     24  O   UNL     1      51.786  50.790  17.362  1.00  0.00    -0.385 OA
ATOM     25  H   UNL     1      52.606  50.474  17.782  1.00  0.00    +0.211 HD
ENDBRANCH  22  24
ENDBRANCH  15  22
ENDBRANCH   3  11
BRANCH   4  26
ATOM     26  O   UNL     1      51.620  54.675  23.641  1.00  0.00    -0.386 OA
ATOM     27  H   UNL     1      51.568  55.490  24.177  1.00  0.00    +0.211 HD
ENDBRANCH   4  26
TORSDOF 6
ENDMDL
MODEL 5
REMARK VINA RESULT:    -5.115      5.581      8.283
REMARK INTER + INTRA:          -7.478
REMARK INTER:                  -7.220
REMARK INTRA:                  -0.258
REMARK UNBOUND:                -0.271
REMARK SMILES OC[C@H]1O[C@@H](n2cnc3c2NC=NC[C@H]3O)[C@H](O)[C@@H]1O
REMARK SMILES IDX 3 1 4 2 5 3 17 4 19 5 2 6 1 7 20 9 6 11 7 12 10 13 8 14 9 15
REMARK SMILES IDX 11 16 12 17 13 18 14 20 15 22 16 24 18 26
REMARK H PARENT 1 8 20 10 11 19 16 25 18 27
REMARK Flexibility Score:   20.900
ROOT
ATOM      1  C   UNL     1      50.193  52.575  19.050  1.00  0.00    +0.178 C 
ATOM      2  O   UNL     1      49.488  51.309  18.966  1.00  0.00    -0.347 OA
ATOM      3  C   UNL     1      50.324  50.375  18.229  1.00  0.00    +0.253 C 
ATOM      4  C   UNL     1      51.451  51.200  17.593  1.00  0.00    +0.195 C 
ATOM      5  C   UNL     1      51.633  52.294  18.626  1.00  0.00    +0.179 C 
ENDROOT
BRANCH   1   6
ATOM      6  C   UNL     1      49.474  53.581  18.139  1.00  0.00    +0.191 C 
BRANCH   6   7
ATOM      7  O   UNL     1      48.728  54.517  18.900  1.00  0.00    -0.394 OA
ATOM      8  H   UNL     1      48.043  54.018  19.382  1.00  0.00    +0.210 HD
ENDBRANCH   6   7
ENDBRANCH   1   6
BRANCH   5   9
ATOM      9  O   UNL     1      52.375  51.758  19.734  1.00  0.00    -0.387 OA
ATOM     10  H   UNL     1      51.756  51.759  20.494  1.00  0.00    +0.211 HD
ENDBRANCH   5   9
BRANCH   3  11
ATOM     11  N   UNL     1      49.529  49.667  17.230  1.00  0.00    -0.287 N 
ATOM     12  C   UNL     1      49.823  49.662  15.888  1.00  0.00    +0.203 A 
ATOM     13  C   UNL     1      48.361  48.964  17.381  1.00  0.00    +0.139 A 
ATOM     14  N   UNL     1      48.873  49.096  15.179  1.00  0.00    -0.237 NA
ATOM     15  C   UNL     1      47.959  48.642  16.104  1.00  0.00    +0.113 A 
BRANCH  13  16
ATOM     16  N   UNL     1      47.768  48.727  18.570  1.00  0.00    -0.331 N 
ATOM     17  C   UNL     1      46.534  48.154  18.762  1.00  0.00    +0.192 C 
ATOM     18  N   UNL     1      45.776  47.416  18.043  1.00  0.00    -0.272 NA
ATOM     19  H   UNL     1      48.215  49.105  19.406  1.00  0.00    +0.169 HD
BRANCH  18  20
ATOM     20  C   UNL     1      46.245  46.903  16.740  1.00  0.00    +0.182 CG0
ATOM     21  G   UNL     1      46.719  47.941  15.707  1.00  0.00    +0.000 G0
ENDBRANCH  18  20
ENDBRANCH  13  16
BRANCH  15  22
ATOM     22  C   UNL     1      46.708  47.940  15.703  1.00  0.00    +0.188 CG0
ATOM     23  G   UNL     1      46.250  46.897  16.737  1.00  0.00    +0.000 G0
BRANCH  22  24
ATOM     24  O   UNL     1      45.661  48.871  15.401  1.00  0.00    -0.385 OA
ATOM     25  H   UNL     1      44.874  48.512  15.851  1.00  0.00    +0.211 HD
ENDBRANCH  22  24
ENDBRANCH  15  22
ENDBRANCH   3  11
BRANCH   4  26
ATOM     26  O   UNL     1      52.666  50.467  17.418  1.00  0.00    -0.386 OA
ATOM     27  H   UNL     1      52.677  50.122  16.505  1.00  0.00    +0.211 HD
ENDBRANCH   4  26
TORSDOF 6
ENDMDL
