MODEL 1
REMARK VINA RESULT:    -5.994      0.000      0.000
REMARK INTER + INTRA:         -10.934
REMARK INTER:                 -10.374
REMARK INTRA:                  -0.560
REMARK UNBOUND:                -0.560
REMARK SMILES CCOC(=O)CCCCCCn1cnc2c1NC=NCC2O
REMARK SMILES IDX 8 1 7 2 6 3 4 4 5 5 3 6 2 7 1 8 9 9 10 10 11 11 12 12 13 13
REMARK SMILES IDX 16 14 14 15 15 16 17 17 18 18 19 19 20 21 21 23 22 25
REMARK H PARENT 17 20 22 26
REMARK Flexibility Score:  149.900
ROOT
ATOM      1  C   UNL     1      48.483  54.570  19.214  1.00  0.00    +0.001 C 
ENDROOT
BRANCH   1   2
ATOM      2  C   UNL     1      49.637  54.180  20.146  1.00  0.00    +0.012 C 
BRANCH   2   3
ATOM      3  C   UNL     1      50.382  55.347  20.787  1.00  0.00    +0.123 C 
BRANCH   3   4
ATOM      4  C   UNL     1      51.660  55.692  20.067  1.00  0.00    +0.305 C 
ATOM      5  O   UNL     1      51.779  55.668  18.849  1.00  0.00    -0.252 OA
BRANCH   4   6
ATOM      6  O   UNL     1      52.633  56.028  20.955  1.00  0.00    -0.466 OA
BRANCH   6   7
ATOM      7  C   UNL     1      52.342  57.144  21.810  1.00  0.00    +0.229 C 
ATOM      8  C   UNL     1      53.194  58.338  21.420  1.00  0.00    +0.049 C 
ENDBRANCH   6   7
ENDBRANCH   4   6
ENDBRANCH   3   4
ENDBRANCH   2   3
ENDBRANCH   1   2
BRANCH   1   9
ATOM      9  C   UNL     1      48.650  54.195  17.739  1.00  0.00    +0.002 C 
BRANCH   9  10
ATOM     10  C   UNL     1      47.858  52.952  17.325  1.00  0.00    +0.022 C 
BRANCH  10  11
ATOM     11  C   UNL     1      48.744  51.856  16.725  1.00  0.00    +0.125 C 
BRANCH  11  12
ATOM     12  N   UNL     1      49.331  50.970  17.708  1.00  0.00    -0.317 N 
ATOM     13  C   UNL     1      48.718  49.842  18.186  1.00  0.00    +0.201 A 
ATOM     14  C   UNL     1      50.525  51.099  18.369  1.00  0.00    +0.137 A 
ATOM     15  N   UNL     1      49.445  49.239  19.097  1.00  0.00    -0.237 NA
ATOM     16  C   UNL     1      50.585  50.004  19.211  1.00  0.00    +0.113 A 
BRANCH  14  17
ATOM     17  N   UNL     1      51.419  52.097  18.171  1.00  0.00    -0.331 N 
ATOM     18  C   UNL     1      52.640  52.214  18.799  1.00  0.00    +0.192 C 
ATOM     19  N   UNL     1      53.133  51.728  19.879  1.00  0.00    -0.272 NA
ATOM     20  H   UNL     1      51.312  52.706  17.366  1.00  0.00    +0.169 HD
BRANCH  19  21
ATOM     21  C   UNL     1      52.271  50.951  20.796  1.00  0.00    +0.182 CG0
ATOM     22  G   UNL     1      51.691  49.670  20.168  1.00  0.00    +0.000 G0
ENDBRANCH  19  21
ENDBRANCH  14  17
BRANCH  16  23
ATOM     23  C   UNL     1      51.689  49.668  20.157  1.00  0.00    +0.188 CG0
ATOM     24  G   UNL     1      52.277  50.943  20.792  1.00  0.00    +0.000 G0
BRANCH  23  25
ATOM     25  O   UNL     1      52.743  48.932  19.518  1.00  0.00    -0.385 OA
ATOM     26  H   UNL     1      52.416  48.013  19.493  1.00  0.00    +0.211 HD
ENDBRANCH  23  25
ENDBRANCH  16  23
ENDBRANCH  11  12
ENDBRANCH  10  11
ENDBRANCH   9  10
ENDBRANCH   1   9
TORSDOF 10
ENDMDL
MODEL 2
REMARK VINA RESULT:    -5.844      1.912      2.812
REMARK INTER + INTRA:         -10.674
REMARK INTER:                 -10.582
REMARK INTRA:                  -0.092
REMARK UNBOUND:                -0.560
REMARK SMILES CCOC(=O)CCCCCCn1cnc2c1NC=NCC2O
REMARK SMILES IDX 8 1 7 2 6 3 4 4 5 5 3 6 2 7 1 8 9 9 10 10 11 11 12 12 13 13
REMARK SMILES IDX 16 14 14 15 15 16 17 17 18 18 19 19 20 21 21 23 22 25
REMARK H PARENT 17 20 22 26
REMARK Flexibility Score:  149.900
ROOT
ATOM      1  C   UNL     1      48.332  57.759  21.061  1.00  0.00    +0.001 C 
ENDROOT
BRANCH   1   2
ATOM      2  C   UNL     1      49.664  57.323  21.683  1.00  0.00    +0.012 C 
BRANCH   2   3
ATOM      3  C   UNL     1      50.915  57.809  20.957  1.00  0.00    +0.123 C 
BRANCH   3   4
ATOM      4  C   UNL     1      51.952  56.728  20.789  1.00  0.00    +0.305 C 
ATOM      5  O   UNL     1      52.232  56.223  19.710  1.00  0.00    -0.252 OA
BRANCH   4   6
ATOM      6  O   UNL     1      52.514  56.414  21.986  1.00  0.00    -0.466 OA
BRANCH   6   7
ATOM      7  C   UNL     1      51.705  55.625  22.870  1.00  0.00    +0.229 C 
ATOM      8  C   UNL     1      51.628  54.194  22.373  1.00  0.00    +0.049 C 
ENDBRANCH   6   7
ENDBRANCH   4   6
ENDBRANCH   3   4
ENDBRANCH   2   3
ENDBRANCH   1   2
BRANCH   1   9
ATOM      9  C   UNL     1      47.986  57.139  19.704  1.00  0.00    +0.002 C 
BRANCH   9  10
ATOM     10  C   UNL     1      48.526  55.719  19.519  1.00  0.00    +0.022 C 
BRANCH  10  11
ATOM     11  C   UNL     1      48.781  55.367  18.050  1.00  0.00    +0.125 C 
BRANCH  11  12
ATOM     12  N   UNL     1      48.907  53.947  17.799  1.00  0.00    -0.317 N 
ATOM     13  C   UNL     1      47.901  53.165  17.294  1.00  0.00    +0.201 A 
ATOM     14  C   UNL     1      49.975  53.126  18.052  1.00  0.00    +0.137 A 
ATOM     15  N   UNL     1      48.260  51.907  17.200  1.00  0.00    -0.237 NA
ATOM     16  C   UNL     1      49.560  51.869  17.655  1.00  0.00    +0.113 A 
BRANCH  14  17
ATOM     17  N   UNL     1      51.164  53.532  18.561  1.00  0.00    -0.331 N 
ATOM     18  C   UNL     1      52.259  52.724  18.778  1.00  0.00    +0.192 C 
ATOM     19  N   UNL     1      52.416  51.459  18.914  1.00  0.00    -0.272 NA
ATOM     20  H   UNL     1      51.371  54.525  18.606  1.00  0.00    +0.169 HD
BRANCH  19  21
ATOM     21  C   UNL     1      51.232  50.575  18.988  1.00  0.00    +0.182 CG0
ATOM     22  G   UNL     1      50.356  50.603  17.721  1.00  0.00    +0.000 G0
ENDBRANCH  19  21
ENDBRANCH  14  17
BRANCH  16  23
ATOM     23  C   UNL     1      50.354  50.607  17.721  1.00  0.00    +0.188 CG0
ATOM     24  G   UNL     1      51.244  50.581  18.978  1.00  0.00    +0.000 G0
BRANCH  23  25
ATOM     25  O   UNL     1      51.176  50.425  16.559  1.00  0.00    -0.385 OA
ATOM     26  H   UNL     1      51.872  49.805  16.848  1.00  0.00    +0.211 HD
ENDBRANCH  23  25
ENDBRANCH  16  23
ENDBRANCH  11  12
ENDBRANCH  10  11
ENDBRANCH   9  10
ENDBRANCH   1   9
TORSDOF 10
ENDMDL
MODEL 3
REMARK VINA RESULT:    -5.788      3.042      6.440
REMARK INTER + INTRA:         -10.578
REMARK INTER:                 -10.074
REMARK INTRA:                  -0.504
REMARK UNBOUND:                -0.560
REMARK SMILES CCOC(=O)CCCCCCn1cnc2c1NC=NCC2O
REMARK SMILES IDX 8 1 7 2 6 3 4 4 5 5 3 6 2 7 1 8 9 9 10 10 11 11 12 12 13 13
REMARK SMILES IDX 16 14 14 15 15 16 17 17 18 18 19 19 20 21 21 23 22 25
REMARK H PARENT 17 20 22 26
REMARK Flexibility Score:  149.900
ROOT
ATOM      1  C   UNL     1      49.703  49.619  18.723  1.00  0.00    +0.001 C 
ENDROOT
BRANCH   1   2
ATOM      2  C   UNL     1      48.424  48.832  18.415  1.00  0.00    +0.012 C 
BRANCH   2   3
ATOM      3  C   UNL     1      47.242  49.667  17.932  1.00  0.00    +0.123 C 
BRANCH   3   4
ATOM      4  C   UNL     1      47.526  50.390  16.640  1.00  0.00    +0.305 C 
ATOM      5  O   UNL     1      47.451  51.605  16.515  1.00  0.00    -0.252 OA
BRANCH   4   6
ATOM      6  O   UNL     1      47.872  49.509  15.665  1.00  0.00    -0.466 OA
BRANCH   6   7
ATOM      7  C   UNL     1      48.662  50.041  14.591  1.00  0.00    +0.229 C 
ATOM      8  C   UNL     1      50.067  49.470  14.642  1.00  0.00    +0.049 C 
ENDBRANCH   6   7
ENDBRANCH   4   6
ENDBRANCH   3   4
ENDBRANCH   2   3
ENDBRANCH   1   2
BRANCH   1   9
ATOM      9  C   UNL     1      50.485  49.178  19.963  1.00  0.00    +0.002 C 
BRANCH   9  10
ATOM     10  C   UNL     1      50.714  50.300  20.979  1.00  0.00    +0.022 C 
BRANCH  10  11
ATOM     11  C   UNL     1      52.106  50.929  20.864  1.00  0.00    +0.125 C 
BRANCH  11  12
ATOM     12  N   UNL     1      52.127  52.182  20.139  1.00  0.00    -0.317 N 
ATOM     13  C   UNL     1      52.333  52.282  18.788  1.00  0.00    +0.201 A 
ATOM     14  C   UNL     1      52.010  53.456  20.631  1.00  0.00    +0.137 A 
ATOM     15  N   UNL     1      52.345  53.531  18.386  1.00  0.00    -0.237 NA
ATOM     16  C   UNL     1      52.128  54.277  19.525  1.00  0.00    +0.113 A 
BRANCH  14  17
ATOM     17  N   UNL     1      51.800  53.770  21.932  1.00  0.00    -0.331 N 
ATOM     18  C   UNL     1      51.628  55.044  22.430  1.00  0.00    +0.192 C 
ATOM     19  N   UNL     1      51.926  56.214  21.997  1.00  0.00    -0.272 NA
ATOM     20  H   UNL     1      51.540  53.037  22.584  1.00  0.00    +0.169 HD
BRANCH  19  21
ATOM     21  C   UNL     1      52.729  56.360  20.764  1.00  0.00    +0.182 CG0
ATOM     22  G   UNL     1      52.058  55.766  19.511  1.00  0.00    +0.000 G0
ENDBRANCH  19  21
ENDBRANCH  14  17
BRANCH  16  23
ATOM     23  C   UNL     1      52.073  55.768  19.513  1.00  0.00    +0.188 CG0
ATOM     24  G   UNL     1      52.711  56.354  20.786  1.00  0.00    +0.000 G0
BRANCH  23  25
ATOM     25  O   UNL     1      50.728  56.257  19.393  1.00  0.00    -0.385 OA
ATOM     26  H   UNL     1      50.639  56.902  20.119  1.00  0.00    +0.211 HD
ENDBRANCH  23  25
ENDBRANCH  16  23
ENDBRANCH  11  12
ENDBRANCH  10  11
ENDBRANCH   9  10
ENDBRANCH   1   9
TORSDOF 10
ENDMDL
MODEL 4
REMARK VINA RESULT:    -5.771      1.692      2.320
REMARK INTER + INTRA:         -10.548
REMARK INTER:                 -10.028
REMARK INTRA:                  -0.519
REMARK UNBOUND:                -0.560
REMARK SMILES CCOC(=O)CCCCCCn1cnc2c1NC=NCC2O
REMARK SMILES IDX 8 1 7 2 6 3 4 4 5 5 3 6 2 7 1 8 9 9 10 10 11 11 12 12 13 13
REMARK SMILES IDX 16 14 14 15 15 16 17 17 18 18 19 19 20 21 21 23 22 25
REMARK H PARENT 17 20 22 26
REMARK Flexibility Score:  149.900
ROOT
ATOM      1  C   UNL     1      47.506  53.193  16.368  1.00  0.00    +0.001 C 
ENDROOT
BRANCH   1   2
ATOM      2  C   UNL     1      48.240  54.295  17.141  1.00  0.00    +0.012 C 
BRANCH   2   3
ATOM      3  C   UNL     1      48.736  53.902  18.529  1.00  0.00    +0.123 C 
BRANCH   3   4
ATOM      4  C   UNL     1      49.599  54.961  19.165  1.00  0.00    +0.305 C 
ATOM      5  O   UNL     1      50.766  55.160  18.853  1.00  0.00    -0.252 OA
BRANCH   4   6
ATOM      6  O   UNL     1      48.899  55.644  20.109  1.00  0.00    -0.466 OA
BRANCH   6   7
ATOM      7  C   UNL     1      49.189  57.046  20.211  1.00  0.00    +0.229 C 
ATOM      8  C   UNL     1      48.105  57.748  21.007  1.00  0.00    +0.049 C 
ENDBRANCH   6   7
ENDBRANCH   4   6
ENDBRANCH   3   4
ENDBRANCH   2   3
ENDBRANCH   1   2
BRANCH   1   9
ATOM      9  C   UNL     1      48.313  51.926  16.071  1.00  0.00    +0.002 C 
BRANCH   9  10
ATOM     10  C   UNL     1      47.793  50.680  16.794  1.00  0.00    +0.022 C 
BRANCH  10  11
ATOM     11  C   UNL     1      48.860  49.590  16.938  1.00  0.00    +0.125 C 
BRANCH  11  12
ATOM     12  N   UNL     1      49.556  49.613  18.208  1.00  0.00    -0.317 N 
ATOM     13  C   UNL     1      49.220  48.828  19.280  1.00  0.00    +0.201 A 
ATOM     14  C   UNL     1      50.596  50.417  18.598  1.00  0.00    +0.137 A 
ATOM     15  N   UNL     1      49.983  49.071  20.321  1.00  0.00    -0.237 NA
ATOM     16  C   UNL     1      50.857  50.050  19.905  1.00  0.00    +0.113 A 
BRANCH  14  17
ATOM     17  N   UNL     1      51.205  51.335  17.810  1.00  0.00    -0.331 N 
ATOM     18  C   UNL     1      52.281  52.114  18.176  1.00  0.00    +0.192 C 
ATOM     19  N   UNL     1      52.776  52.473  19.304  1.00  0.00    -0.272 NA
ATOM     20  H   UNL     1      51.020  51.334  16.812  1.00  0.00    +0.169 HD
BRANCH  19  21
ATOM     21  C   UNL     1      52.066  52.137  20.557  1.00  0.00    +0.182 CG0
ATOM     22  G   UNL     1      51.905  50.624  20.795  1.00  0.00    +0.000 G0
ENDBRANCH  19  21
ENDBRANCH  14  17
BRANCH  16  23
ATOM     23  C   UNL     1      51.905  50.627  20.798  1.00  0.00    +0.188 CG0
ATOM     24  G   UNL     1      52.075  52.137  20.545  1.00  0.00    +0.000 G0
BRANCH  23  25
ATOM     25  O   UNL     1      53.174  49.976  20.631  1.00  0.00    -0.385 OA
ATOM     26  H   UNL     1      53.049  49.094  21.027  1.00  0.00    +0.211 HD
ENDBRANCH  23  25
ENDBRANCH  16  23
ENDBRANCH  11  12
ENDBRANCH  10  11
ENDBRANCH   9  10
ENDBRANCH   1   9
TORSDOF 10
ENDMDL
MODEL 5
REMARK VINA RESULT:    -5.694      3.269      6.652
REMARK INTER + INTRA:         -10.414
REMARK INTER:                 -10.002
REMARK INTRA:                  -0.412
REMARK UNBOUND:                -0.560
REMARK SMILES CCOC(=O)CCCCCCn1cnc2c1NC=NCC2O
REMARK SMILES IDX 8 1 7 2 6 3 4 4 5 5 3 6 2 7 1 8 9 9 10 10 11 11 12 12 13 13
REMARK SMILES IDX 16 14 14 15 15 16 17 17 18 18 19 19 20 21 21 23 22 25
REMARK H PARENT 17 20 22 26
REMARK Flexibility Score:  149.900
ROOT
ATOM      1  C   UNL     1      49.786  49.154  19.426  1.00  0.00    +0.001 C 
ENDROOT
BRANCH   1   2
ATOM      2  C   UNL     1      48.850  48.364  18.504  1.00  0.00    +0.012 C 
BRANCH   2   3
ATOM      3  C   UNL     1      47.434  48.919  18.379  1.00  0.00    +0.123 C 
BRANCH   3   4
ATOM      4  C   UNL     1      47.081  49.312  16.968  1.00  0.00    +0.305 C 
ATOM      5  O   UNL     1      46.268  48.709  16.281  1.00  0.00    -0.252 OA
BRANCH   4   6
ATOM      6  O   UNL     1      47.783  50.413  16.589  1.00  0.00    -0.466 OA
BRANCH   6   7
ATOM      7  C   UNL     1      48.257  50.417  15.233  1.00  0.00    +0.229 C 
ATOM      8  C   UNL     1      49.682  49.899  15.176  1.00  0.00    +0.049 C 
ENDBRANCH   6   7
ENDBRANCH   4   6
ENDBRANCH   3   4
ENDBRANCH   2   3
ENDBRANCH   1   2
BRANCH   1   9
ATOM      9  C   UNL     1      50.361  50.453  18.852  1.00  0.00    +0.002 C 
BRANCH   9  10
ATOM     10  C   UNL     1      51.817  50.709  19.246  1.00  0.00    +0.022 C 
BRANCH  10  11
ATOM     11  C   UNL     1      52.214  52.184  19.124  1.00  0.00    +0.125 C 
BRANCH  11  12
ATOM     12  N   UNL     1      52.005  52.951  20.334  1.00  0.00    -0.317 N 
ATOM     13  C   UNL     1      51.805  52.394  21.570  1.00  0.00    +0.201 A 
ATOM     14  C   UNL     1      51.911  54.311  20.479  1.00  0.00    +0.137 A 
ATOM     15  N   UNL     1      51.602  53.306  22.491  1.00  0.00    -0.237 NA
ATOM     16  C   UNL     1      51.681  54.511  21.827  1.00  0.00    +0.113 A 
BRANCH  14  17
ATOM     17  N   UNL     1      52.050  55.210  19.475  1.00  0.00    -0.331 N 
ATOM     18  C   UNL     1      52.001  56.580  19.616  1.00  0.00    +0.192 C 
ATOM     19  N   UNL     1      51.519  57.365  20.508  1.00  0.00    -0.272 NA
ATOM     20  H   UNL     1      52.420  54.903  18.581  1.00  0.00    +0.169 HD
BRANCH  19  21
ATOM     21  C   UNL     1      50.718  56.809  21.621  1.00  0.00    +0.182 CG0
ATOM     22  G   UNL     1      51.493  55.816  22.509  1.00  0.00    +0.000 G0
ENDBRANCH  19  21
ENDBRANCH  14  17
BRANCH  16  23
ATOM     23  C   UNL     1      51.500  55.823  22.515  1.00  0.00    +0.188 CG0
ATOM     24  G   UNL     1      50.718  56.808  21.625  1.00  0.00    +0.000 G0
BRANCH  23  25
ATOM     25  O   UNL     1      52.754  56.416  22.884  1.00  0.00    -0.385 OA
ATOM     26  H   UNL     1      52.914  56.099  23.792  1.00  0.00    +0.211 HD
ENDBRANCH  23  25
ENDBRANCH  16  23
ENDBRANCH  11  12
ENDBRANCH  10  11
ENDBRANCH   9  10
ENDBRANCH   1   9
TORSDOF 10
ENDMDL
