MODEL 1
REMARK VINA RESULT:    -5.948      0.000      0.000
REMARK INTER + INTRA:          -9.293
REMARK INTER:                  -9.252
REMARK INTRA:                  -0.041
REMARK UNBOUND:                -0.041
REMARK SMILES CCCCCCCn1cnc2c1NC=NCC2O
REMARK SMILES IDX 6 1 5 2 4 3 3 4 2 5 1 6 7 7 8 8 9 9 12 10 10 11 11 12 13 13
REMARK SMILES IDX 14 14 15 15 16 17 17 19 18 21
REMARK H PARENT 13 16 18 22
REMARK Flexibility Score:   49.900
ROOT
ATOM      1  C   UNL     1      50.544  57.695  21.614  1.00  0.00    +0.022 C 
ENDROOT
BRANCH   1   2
ATOM      2  C   UNL     1      49.039  57.938  21.756  1.00  0.00    +0.002 C 
BRANCH   2   3
ATOM      3  C   UNL     1      48.212  57.296  20.636  1.00  0.00    +0.000 C 
BRANCH   3   4
ATOM      4  C   UNL     1      47.983  58.164  19.394  1.00  0.00    -0.000 C 
BRANCH   4   5
ATOM      5  C   UNL     1      47.214  59.466  19.628  1.00  0.00    -0.003 C 
ATOM      6  C   UNL     1      46.997  60.277  18.360  1.00  0.00    +0.004 C 
ENDBRANCH   4   5
ENDBRANCH   3   4
ENDBRANCH   2   3
ENDBRANCH   1   2
BRANCH   1   7
ATOM      7  C   UNL     1      50.958  56.273  22.004  1.00  0.00    +0.125 C 
BRANCH   7   8
ATOM      8  N   UNL     1      51.520  55.502  20.915  1.00  0.00    -0.317 N 
ATOM      9  C   UNL     1      51.894  56.024  19.703  1.00  0.00    +0.201 A 
ATOM     10  C   UNL     1      51.802  54.160  20.887  1.00  0.00    +0.137 A 
ATOM     11  N   UNL     1      52.380  55.104  18.901  1.00  0.00    -0.237 NA
ATOM     12  C   UNL     1      52.325  53.936  19.633  1.00  0.00    +0.113 A 
BRANCH  10  13
ATOM     13  N   UNL     1      51.598  53.300  21.911  1.00  0.00    -0.331 N 
ATOM     14  C   UNL     1      51.881  51.951  21.892  1.00  0.00    +0.192 C 
ATOM     15  N   UNL     1      52.074  51.092  20.962  1.00  0.00    -0.272 NA
ATOM     16  H   UNL     1      51.362  53.663  22.829  1.00  0.00    +0.169 HD
BRANCH  15  17
ATOM     17  C   UNL     1      51.890  51.476  19.550  1.00  0.00    +0.182 CG0
ATOM     18  G   UNL     1      52.781  52.631  19.068  1.00  0.00    +0.000 G0
ENDBRANCH  15  17
ENDBRANCH  10  13
BRANCH  12  19
ATOM     19  C   UNL     1      52.787  52.633  19.070  1.00  0.00    +0.188 CG0
ATOM     20  G   UNL     1      51.884  51.478  19.533  1.00  0.00    +0.000 G0
BRANCH  19  21
ATOM     21  O   UNL     1      52.790  52.681  17.635  1.00  0.00    -0.385 OA
ATOM     22  H   UNL     1      52.792  51.741  17.363  1.00  0.00    +0.211 HD
ENDBRANCH  19  21
ENDBRANCH  12  19
ENDBRANCH   7   8
ENDBRANCH   1   7
TORSDOF 7
ENDMDL
MODEL 2
REMARK VINA RESULT:    -5.906      1.778      2.741
REMARK INTER + INTRA:          -9.227
REMARK INTER:                  -9.225
REMARK INTRA:                  -0.002
REMARK UNBOUND:                -0.041
REMARK SMILES CCCCCCCn1cnc2c1NC=NCC2O
REMARK SMILES IDX 6 1 5 2 4 3 3 4 2 5 1 6 7 7 8 8 9 9 12 10 10 11 11 12 13 13
REMARK SMILES IDX 14 14 15 15 16 17 17 19 18 21
REMARK H PARENT 13 16 18 22
REMARK Flexibility Score:   49.900
ROOT
ATOM      1  C   UNL     1      51.351  56.540  19.869  1.00  0.00    +0.022 C 
ENDROOT
BRANCH   1   2
ATOM      2  C   UNL     1      51.107  57.508  21.031  1.00  0.00    +0.002 C 
BRANCH   2   3
ATOM      3  C   UNL     1      49.814  57.220  21.801  1.00  0.00    +0.000 C 
BRANCH   3   4
ATOM      4  C   UNL     1      48.698  58.259  21.644  1.00  0.00    -0.000 C 
BRANCH   4   5
ATOM      5  C   UNL     1      47.645  57.944  20.579  1.00  0.00    -0.003 C 
ATOM      6  C   UNL     1      47.484  59.047  19.543  1.00  0.00    +0.004 C 
ENDBRANCH   4   5
ENDBRANCH   3   4
ENDBRANCH   2   3
ENDBRANCH   1   2
BRANCH   1   7
ATOM      7  C   UNL     1      52.468  55.533  20.158  1.00  0.00    +0.125 C 
BRANCH   7   8
ATOM      8  N   UNL     1      51.993  54.235  20.592  1.00  0.00    -0.317 N 
ATOM      9  C   UNL     1      51.347  53.999  21.779  1.00  0.00    +0.201 A 
ATOM     10  C   UNL     1      52.071  53.040  19.924  1.00  0.00    +0.137 A 
ATOM     11  N   UNL     1      51.022  52.734  21.917  1.00  0.00    -0.237 NA
ATOM     12  C   UNL     1      51.471  52.127  20.763  1.00  0.00    +0.113 A 
BRANCH  10  13
ATOM     13  N   UNL     1      52.618  52.867  18.699  1.00  0.00    -0.331 N 
ATOM     14  C   UNL     1      52.699  51.670  18.019  1.00  0.00    +0.192 C 
ATOM     15  N   UNL     1      52.624  50.440  18.366  1.00  0.00    -0.272 NA
ATOM     16  H   UNL     1      52.864  53.679  18.142  1.00  0.00    +0.169 HD
BRANCH  15  17
ATOM     17  C   UNL     1      52.524  50.077  19.792  1.00  0.00    +0.182 CG0
ATOM     18  G   UNL     1      51.304  50.656  20.527  1.00  0.00    +0.000 G0
ENDBRANCH  15  17
ENDBRANCH  10  13
BRANCH  12  19
ATOM     19  C   UNL     1      51.298  50.664  20.524  1.00  0.00    +0.188 CG0
ATOM     20  G   UNL     1      52.514  50.075  19.791  1.00  0.00    +0.000 G0
BRANCH  19  21
ATOM     21  O   UNL     1      51.119  49.972  21.770  1.00  0.00    -0.385 OA
ATOM     22  H   UNL     1      51.958  50.122  22.251  1.00  0.00    +0.211 HD
ENDBRANCH  19  21
ENDBRANCH  12  19
ENDBRANCH   7   8
ENDBRANCH   1   7
TORSDOF 7
ENDMDL
MODEL 3
REMARK VINA RESULT:    -5.725      1.744      2.348
REMARK INTER + INTRA:          -8.946
REMARK INTER:                  -9.024
REMARK INTRA:                   0.078
REMARK UNBOUND:                -0.041
REMARK SMILES CCCCCCCn1cnc2c1NC=NCC2O
REMARK SMILES IDX 6 1 5 2 4 3 3 4 2 5 1 6 7 7 8 8 9 9 12 10 10 11 11 12 13 13
REMARK SMILES IDX 14 14 15 15 16 17 17 19 18 21
REMARK H PARENT 13 16 18 22
REMARK Flexibility Score:   49.900
ROOT
ATOM      1  C   UNL     1      50.265  56.548  21.541  1.00  0.00    +0.022 C 
ENDROOT
BRANCH   1   2
ATOM      2  C   UNL     1      49.373  57.778  21.355  1.00  0.00    +0.002 C 
BRANCH   2   3
ATOM      3  C   UNL     1      48.061  57.473  20.624  1.00  0.00    +0.000 C 
BRANCH   3   4
ATOM      4  C   UNL     1      47.787  58.306  19.368  1.00  0.00    -0.000 C 
BRANCH   4   5
ATOM      5  C   UNL     1      47.131  59.668  19.606  1.00  0.00    -0.003 C 
ATOM      6  C   UNL     1      47.268  60.621  18.428  1.00  0.00    +0.004 C 
ENDBRANCH   4   5
ENDBRANCH   3   4
ENDBRANCH   2   3
ENDBRANCH   1   2
BRANCH   1   7
ATOM      7  C   UNL     1      49.973  55.440  20.524  1.00  0.00    +0.125 C 
BRANCH   7   8
ATOM      8  N   UNL     1      50.685  54.205  20.776  1.00  0.00    -0.317 N 
ATOM      9  C   UNL     1      51.438  53.954  21.895  1.00  0.00    +0.201 A 
ATOM     10  C   UNL     1      50.728  53.080  19.992  1.00  0.00    +0.137 A 
ATOM     11  N   UNL     1      51.968  52.752  21.869  1.00  0.00    -0.237 NA
ATOM     12  C   UNL     1      51.531  52.200  20.684  1.00  0.00    +0.113 A 
BRANCH  10  13
ATOM     13  N   UNL     1      50.085  52.928  18.812  1.00  0.00    -0.331 N 
ATOM     14  C   UNL     1      50.122  51.800  18.019  1.00  0.00    +0.192 C 
ATOM     15  N   UNL     1      50.909  50.793  17.935  1.00  0.00    -0.272 NA
ATOM     16  H   UNL     1      49.394  53.614  18.527  1.00  0.00    +0.169 HD
BRANCH  15  17
ATOM     17  C   UNL     1      52.142  50.748  18.742  1.00  0.00    +0.182 CG0
ATOM     18  G   UNL     1      51.929  50.820  20.262  1.00  0.00    +0.000 G0
ENDBRANCH  15  17
ENDBRANCH  10  13
BRANCH  12  19
ATOM     19  C   UNL     1      51.921  50.820  20.267  1.00  0.00    +0.188 CG0
ATOM     20  G   UNL     1      52.141  50.742  18.748  1.00  0.00    +0.000 G0
BRANCH  19  21
ATOM     21  O   UNL     1      53.125  50.417  20.939  1.00  0.00    -0.385 OA
ATOM     22  H   UNL     1      52.854  50.311  21.873  1.00  0.00    +0.211 HD
ENDBRANCH  19  21
ENDBRANCH  12  19
ENDBRANCH   7   8
ENDBRANCH   1   7
TORSDOF 7
ENDMDL
MODEL 4
REMARK VINA RESULT:    -5.676      4.808      7.356
REMARK INTER + INTRA:          -8.869
REMARK INTER:                  -8.919
REMARK INTRA:                   0.050
REMARK UNBOUND:                -0.041
REMARK SMILES CCCCCCCn1cnc2c1NC=NCC2O
REMARK SMILES IDX 6 1 5 2 4 3 3 4 2 5 1 6 7 7 8 8 9 9 12 10 10 11 11 12 13 13
REMARK SMILES IDX 14 14 15 15 16 17 17 19 18 21
REMARK H PARENT 13 16 18 22
REMARK Flexibility Score:   49.900
ROOT
ATOM      1  C   UNL     1      47.785  50.067  15.946  1.00  0.00    +0.022 C 
ENDROOT
BRANCH   1   2
ATOM      2  C   UNL     1      47.350  48.813  15.182  1.00  0.00    +0.002 C 
BRANCH   2   3
ATOM      3  C   UNL     1      46.073  48.175  15.739  1.00  0.00    +0.000 C 
BRANCH   3   4
ATOM      4  C   UNL     1      45.410  48.915  16.905  1.00  0.00    -0.000 C 
BRANCH   4   5
ATOM      5  C   UNL     1      45.799  48.430  18.304  1.00  0.00    -0.003 C 
ATOM      6  C   UNL     1      44.944  47.275  18.803  1.00  0.00    +0.004 C 
ENDBRANCH   4   5
ENDBRANCH   3   4
ENDBRANCH   2   3
ENDBRANCH   1   2
BRANCH   1   7
ATOM      7  C   UNL     1      49.304  50.164  16.117  1.00  0.00    +0.125 C 
BRANCH   7   8
ATOM      8  N   UNL     1      49.759  49.957  17.476  1.00  0.00    -0.317 N 
ATOM      9  C   UNL     1      49.283  48.984  18.318  1.00  0.00    +0.201 A 
ATOM     10  C   UNL     1      50.730  50.647  18.156  1.00  0.00    +0.137 A 
ATOM     11  N   UNL     1      49.875  49.017  19.490  1.00  0.00    -0.237 NA
ATOM     12  C   UNL     1      50.779  50.054  19.398  1.00  0.00    +0.113 A 
BRANCH  10  13
ATOM     13  N   UNL     1      51.457  51.670  17.651  1.00  0.00    -0.331 N 
ATOM     14  C   UNL     1      52.439  52.365  18.325  1.00  0.00    +0.192 C 
ATOM     15  N   UNL     1      52.737  52.515  19.562  1.00  0.00    -0.272 NA
ATOM     16  H   UNL     1      51.410  51.874  16.658  1.00  0.00    +0.169 HD
BRANCH  15  17
ATOM     17  C   UNL     1      51.864  51.953  20.608  1.00  0.00    +0.182 CG0
ATOM     18  G   UNL     1      51.667  50.430  20.542  1.00  0.00    +0.000 G0
ENDBRANCH  15  17
ENDBRANCH  10  13
BRANCH  12  19
ATOM     19  C   UNL     1      51.664  50.431  20.540  1.00  0.00    +0.188 CG0
ATOM     20  G   UNL     1      51.859  51.954  20.611  1.00  0.00    +0.000 G0
BRANCH  19  21
ATOM     21  O   UNL     1      51.102  49.970  21.780  1.00  0.00    -0.385 OA
ATOM     22  H   UNL     1      51.552  49.116  21.944  1.00  0.00    +0.211 HD
ENDBRANCH  19  21
ENDBRANCH  12  19
ENDBRANCH   7   8
ENDBRANCH   1   7
TORSDOF 7
ENDMDL
MODEL 5
REMARK VINA RESULT:    -5.504      2.206      3.330
REMARK INTER + INTRA:          -8.603
REMARK INTER:                  -8.609
REMARK INTRA:                   0.007
REMARK UNBOUND:                -0.041
REMARK SMILES CCCCCCCn1cnc2c1NC=NCC2O
REMARK SMILES IDX 6 1 5 2 4 3 3 4 2 5 1 6 7 7 8 8 9 9 12 10 10 11 11 12 13 13
REMARK SMILES IDX 14 14 15 15 16 17 17 19 18 21
REMARK H PARENT 13 16 18 22
REMARK Flexibility Score:   49.900
ROOT
ATOM      1  C   UNL     1      51.256  55.224  22.076  1.00  0.00    +0.022 C 
ENDROOT
BRANCH   1   2
ATOM      2  C   UNL     1      51.248  56.755  22.099  1.00  0.00    +0.002 C 
BRANCH   2   3
ATOM      3  C   UNL     1      50.357  57.375  21.017  1.00  0.00    +0.000 C 
BRANCH   3   4
ATOM      4  C   UNL     1      48.881  57.552  21.388  1.00  0.00    -0.000 C 
BRANCH   4   5
ATOM      5  C   UNL     1      47.873  57.099  20.329  1.00  0.00    -0.003 C 
ATOM      6  C   UNL     1      47.889  57.956  19.073  1.00  0.00    +0.004 C 
ENDBRANCH   4   5
ENDBRANCH   3   4
ENDBRANCH   2   3
ENDBRANCH   1   2
BRANCH   1   7
ATOM      7  C   UNL     1      51.759  54.650  20.749  1.00  0.00    +0.125 C 
BRANCH   7   8
ATOM      8  N   UNL     1      51.507  53.234  20.585  1.00  0.00    -0.317 N 
ATOM      9  C   UNL     1      51.987  52.255  21.419  1.00  0.00    +0.201 A 
ATOM     10  C   UNL     1      50.753  52.615  19.620  1.00  0.00    +0.137 A 
ATOM     11  N   UNL     1      51.602  51.058  21.042  1.00  0.00    -0.237 NA
ATOM     12  C   UNL     1      50.832  51.273  19.919  1.00  0.00    +0.113 A 
BRANCH  10  13
ATOM     13  N   UNL     1      50.089  53.249  18.627  1.00  0.00    -0.331 N 
ATOM     14  C   UNL     1      49.325  52.635  17.656  1.00  0.00    +0.192 C 
ATOM     15  N   UNL     1      49.254  51.442  17.198  1.00  0.00    -0.272 NA
ATOM     16  H   UNL     1      49.998  54.259  18.651  1.00  0.00    +0.169 HD
BRANCH  15  17
ATOM     17  C   UNL     1      50.208  50.415  17.655  1.00  0.00    +0.182 CG0
ATOM     18  G   UNL     1      50.194  50.140  19.168  1.00  0.00    +0.000 G0
ENDBRANCH  15  17
ENDBRANCH  10  13
BRANCH  12  19
ATOM     19  C   UNL     1      50.198  50.147  19.171  1.00  0.00    +0.188 CG0
ATOM     20  G   UNL     1      50.218  50.407  17.656  1.00  0.00    +0.000 G0
BRANCH  19  21
ATOM     21  O   UNL     1      50.885  48.916  19.446  1.00  0.00    -0.385 OA
ATOM     22  H   UNL     1      50.260  48.413  20.007  1.00  0.00    +0.211 HD
ENDBRANCH  19  21
ENDBRANCH  12  19
ENDBRANCH   7   8
ENDBRANCH   1   7
TORSDOF 7
ENDMDL
