MODEL 1
REMARK VINA RESULT:    -6.147      0.000      0.000
REMARK INTER + INTRA:         -11.282
REMARK INTER:                 -10.638
REMARK INTRA:                  -0.644
REMARK UNBOUND:                -0.644
REMARK SMILES COC(=O)CCCCCCCn1cnc2c1NC=NCC2O
REMARK SMILES IDX 8 1 7 2 6 3 5 4 3 5 4 6 2 7 1 8 9 9 10 10 11 11 12 12 13 13
REMARK SMILES IDX 16 14 14 15 15 16 17 17 18 18 19 19 20 21 21 23 22 25
REMARK H PARENT 17 20 22 26
REMARK Flexibility Score:  149.900
ROOT
ATOM      1  C   UNL     1      48.008  58.148  20.393  1.00  0.00    +0.000 C 
ENDROOT
BRANCH   1   2
ATOM      2  C   UNL     1      48.711  58.262  21.749  1.00  0.00    +0.001 C 
BRANCH   2   3
ATOM      3  C   UNL     1      49.886  57.291  21.917  1.00  0.00    +0.012 C 
BRANCH   3   4
ATOM      4  C   UNL     1      51.249  57.839  21.492  1.00  0.00    +0.123 C 
BRANCH   4   5
ATOM      5  C   UNL     1      52.393  56.907  21.820  1.00  0.00    +0.305 C 
ATOM      6  O   UNL     1      52.294  55.706  22.022  1.00  0.00    -0.252 OA
BRANCH   5   7
ATOM      7  O   UNL     1      53.553  57.619  21.888  1.00  0.00    -0.469 OA
ATOM      8  C   UNL     1      54.254  57.707  20.646  1.00  0.00    +0.282 C 
ENDBRANCH   5   7
ENDBRANCH   4   5
ENDBRANCH   3   4
ENDBRANCH   2   3
ENDBRANCH   1   2
BRANCH   1   9
ATOM      9  C   UNL     1      47.802  56.682  20.003  1.00  0.00    +0.002 C 
BRANCH   9  10
ATOM     10  C   UNL     1      48.446  56.309  18.664  1.00  0.00    +0.022 C 
BRANCH  10  11
ATOM     11  C   UNL     1      49.805  55.612  18.762  1.00  0.00    +0.125 C 
BRANCH  11  12
ATOM     12  N   UNL     1      49.751  54.182  18.533  1.00  0.00    -0.317 N 
ATOM     13  C   UNL     1      48.909  53.567  17.640  1.00  0.00    +0.201 A 
ATOM     14  C   UNL     1      50.537  53.208  19.090  1.00  0.00    +0.137 A 
ATOM     15  N   UNL     1      49.092  52.267  17.608  1.00  0.00    -0.237 NA
ATOM     16  C   UNL     1      50.109  52.033  18.510  1.00  0.00    +0.113 A 
BRANCH  14  17
ATOM     17  N   UNL     1      51.498  53.418  20.018  1.00  0.00    -0.331 N 
ATOM     18  C   UNL     1      52.283  52.443  20.596  1.00  0.00    +0.192 C 
ATOM     19  N   UNL     1      52.592  51.242  20.277  1.00  0.00    -0.272 NA
ATOM     20  H   UNL     1      51.572  54.327  20.464  1.00  0.00    +0.169 HD
BRANCH  19  21
ATOM     21  C   UNL     1      52.157  50.683  18.985  1.00  0.00    +0.182 CG0
ATOM     22  G   UNL     1      50.638  50.662  18.761  1.00  0.00    +0.000 G0
ENDBRANCH  19  21
ENDBRANCH  14  17
BRANCH  16  23
ATOM     23  C   UNL     1      50.636  50.660  18.763  1.00  0.00    +0.188 CG0
ATOM     24  G   UNL     1      52.153  50.684  19.003  1.00  0.00    +0.000 G0
BRANCH  23  25
ATOM     25  O   UNL     1      50.348  49.802  17.648  1.00  0.00    -0.385 OA
ATOM     26  H   UNL     1      49.991  48.988  18.058  1.00  0.00    +0.211 HD
ENDBRANCH  23  25
ENDBRANCH  16  23
ENDBRANCH  11  12
ENDBRANCH  10  11
ENDBRANCH   9  10
ENDBRANCH   1   9
TORSDOF 10
ENDMDL
MODEL 2
REMARK VINA RESULT:    -6.041      2.350      3.813
REMARK INTER + INTRA:         -11.100
REMARK INTER:                 -10.584
REMARK INTRA:                  -0.516
REMARK UNBOUND:                -0.644
REMARK SMILES COC(=O)CCCCCCCn1cnc2c1NC=NCC2O
REMARK SMILES IDX 8 1 7 2 6 3 5 4 3 5 4 6 2 7 1 8 9 9 10 10 11 11 12 12 13 13
REMARK SMILES IDX 16 14 14 15 15 16 17 17 18 18 19 19 20 21 21 23 22 25
REMARK H PARENT 17 20 22 26
REMARK Flexibility Score:  149.900
ROOT
ATOM      1  C   UNL     1      49.806  57.176  21.561  1.00  0.00    +0.000 C 
ENDROOT
BRANCH   1   2
ATOM      2  C   UNL     1      48.734  58.268  21.485  1.00  0.00    +0.001 C 
BRANCH   2   3
ATOM      3  C   UNL     1      47.508  57.872  20.654  1.00  0.00    +0.012 C 
BRANCH   3   4
ATOM      4  C   UNL     1      47.678  56.612  19.804  1.00  0.00    +0.123 C 
BRANCH   4   5
ATOM      5  C   UNL     1      48.194  56.898  18.412  1.00  0.00    +0.305 C 
ATOM      6  O   UNL     1      47.879  57.857  17.723  1.00  0.00    -0.252 OA
BRANCH   5   7
ATOM      7  O   UNL     1      49.043  55.903  18.029  1.00  0.00    -0.469 OA
ATOM      8  C   UNL     1      48.904  54.700  18.785  1.00  0.00    +0.282 C 
ENDBRANCH   5   7
ENDBRANCH   4   5
ENDBRANCH   3   4
ENDBRANCH   2   3
ENDBRANCH   1   2
BRANCH   1   9
ATOM      9  C   UNL     1      51.196  57.784  21.760  1.00  0.00    +0.002 C 
BRANCH   9  10
ATOM     10  C   UNL     1      52.339  56.809  21.457  1.00  0.00    +0.022 C 
BRANCH  10  11
ATOM     11  C   UNL     1      52.062  55.803  20.337  1.00  0.00    +0.125 C 
BRANCH  11  12
ATOM     12  N   UNL     1      51.985  54.428  20.788  1.00  0.00    -0.317 N 
ATOM     13  C   UNL     1      51.628  54.043  22.056  1.00  0.00    +0.201 A 
ATOM     14  C   UNL     1      52.180  53.287  20.054  1.00  0.00    +0.137 A 
ATOM     15  N   UNL     1      51.606  52.736  22.184  1.00  0.00    -0.237 NA
ATOM     16  C   UNL     1      51.948  52.255  20.938  1.00  0.00    +0.113 A 
BRANCH  14  17
ATOM     17  N   UNL     1      52.540  53.251  18.751  1.00  0.00    -0.331 N 
ATOM     18  C   UNL     1      52.756  52.109  18.010  1.00  0.00    +0.192 C 
ATOM     19  N   UNL     1      52.415  50.881  18.143  1.00  0.00    -0.272 NA
ATOM     20  H   UNL     1      52.837  54.106  18.291  1.00  0.00    +0.169 HD
BRANCH  19  21
ATOM     21  C   UNL     1      51.514  50.477  19.237  1.00  0.00    +0.182 CG0
ATOM     22  G   UNL     1      52.021  50.795  20.651  1.00  0.00    +0.000 G0
ENDBRANCH  19  21
ENDBRANCH  14  17
BRANCH  16  23
ATOM     23  C   UNL     1      52.023  50.792  20.652  1.00  0.00    +0.188 CG0
ATOM     24  G   UNL     1      51.504  50.475  19.241  1.00  0.00    +0.000 G0
BRANCH  23  25
ATOM     25  O   UNL     1      51.253  50.055  21.614  1.00  0.00    -0.385 OA
ATOM     26  H   UNL     1      50.937  49.272  21.120  1.00  0.00    +0.211 HD
ENDBRANCH  23  25
ENDBRANCH  16  23
ENDBRANCH  11  12
ENDBRANCH  10  11
ENDBRANCH   9  10
ENDBRANCH   1   9
TORSDOF 10
ENDMDL
MODEL 3
REMARK VINA RESULT:    -5.991      2.521      4.558
REMARK INTER + INTRA:         -11.012
REMARK INTER:                 -10.254
REMARK INTRA:                  -0.758
REMARK UNBOUND:                -0.644
REMARK SMILES COC(=O)CCCCCCCn1cnc2c1NC=NCC2O
REMARK SMILES IDX 8 1 7 2 6 3 5 4 3 5 4 6 2 7 1 8 9 9 10 10 11 11 12 12 13 13
REMARK SMILES IDX 16 14 14 15 15 16 17 17 18 18 19 19 20 21 21 23 22 25
REMARK H PARENT 17 20 22 26
REMARK Flexibility Score:  149.900
ROOT
ATOM      1  C   UNL     1      48.390  56.891  19.980  1.00  0.00    +0.000 C 
ENDROOT
BRANCH   1   2
ATOM      2  C   UNL     1      48.288  55.377  19.769  1.00  0.00    +0.001 C 
BRANCH   2   3
ATOM      3  C   UNL     1      48.664  54.927  18.351  1.00  0.00    +0.012 C 
BRANCH   3   4
ATOM      4  C   UNL     1      48.595  53.419  18.109  1.00  0.00    +0.123 C 
BRANCH   4   5
ATOM      5  C   UNL     1      48.250  53.061  16.682  1.00  0.00    +0.305 C 
ATOM      6  O   UNL     1      47.585  53.746  15.919  1.00  0.00    -0.252 OA
BRANCH   5   7
ATOM      7  O   UNL     1      48.770  51.837  16.382  1.00  0.00    -0.469 OA
ATOM      8  C   UNL     1      48.853  50.952  17.500  1.00  0.00    +0.282 C 
ENDBRANCH   5   7
ENDBRANCH   4   5
ENDBRANCH   3   4
ENDBRANCH   2   3
ENDBRANCH   1   2
BRANCH   1   9
ATOM      9  C   UNL     1      48.848  57.216  21.405  1.00  0.00    +0.002 C 
BRANCH   9  10
ATOM     10  C   UNL     1      50.307  57.677  21.488  1.00  0.00    +0.022 C 
BRANCH  10  11
ATOM     11  C   UNL     1      51.319  56.585  21.847  1.00  0.00    +0.125 C 
BRANCH  11  12
ATOM     12  N   UNL     1      51.642  55.698  20.748  1.00  0.00    -0.317 N 
ATOM     13  C   UNL     1      52.093  56.112  19.519  1.00  0.00    +0.201 A 
ATOM     14  C   UNL     1      51.622  54.328  20.736  1.00  0.00    +0.137 A 
ATOM     15  N   UNL     1      52.341  55.099  18.721  1.00  0.00    -0.237 NA
ATOM     16  C   UNL     1      52.051  53.979  19.473  1.00  0.00    +0.113 A 
BRANCH  14  17
ATOM     17  N   UNL     1      51.237  53.545  21.769  1.00  0.00    -0.331 N 
ATOM     18  C   UNL     1      51.195  52.167  21.760  1.00  0.00    +0.192 C 
ATOM     19  N   UNL     1      51.740  51.263  21.035  1.00  0.00    -0.272 NA
ATOM     20  H   UNL     1      50.789  53.968  22.576  1.00  0.00    +0.169 HD
BRANCH  19  21
ATOM     21  C   UNL     1      52.727  51.634  20.004  1.00  0.00    +0.182 CG0
ATOM     22  G   UNL     1      52.212  52.600  18.927  1.00  0.00    +0.000 G0
ENDBRANCH  19  21
ENDBRANCH  14  17
BRANCH  16  23
ATOM     23  C   UNL     1      52.217  52.600  18.928  1.00  0.00    +0.188 CG0
ATOM     24  G   UNL     1      52.743  51.638  20.004  1.00  0.00    +0.000 G0
BRANCH  23  25
ATOM     25  O   UNL     1      53.128  52.609  17.818  1.00  0.00    -0.385 OA
ATOM     26  H   UNL     1      53.680  51.812  17.954  1.00  0.00    +0.211 HD
ENDBRANCH  23  25
ENDBRANCH  16  23
ENDBRANCH  11  12
ENDBRANCH  10  11
ENDBRANCH   9  10
ENDBRANCH   1   9
TORSDOF 10
ENDMDL
MODEL 4
REMARK VINA RESULT:    -5.987      1.493      2.497
REMARK INTER + INTRA:         -11.005
REMARK INTER:                 -10.568
REMARK INTRA:                  -0.437
REMARK UNBOUND:                -0.644
REMARK SMILES COC(=O)CCCCCCCn1cnc2c1NC=NCC2O
REMARK SMILES IDX 8 1 7 2 6 3 5 4 3 5 4 6 2 7 1 8 9 9 10 10 11 11 12 12 13 13
REMARK SMILES IDX 16 14 14 15 15 16 17 17 18 18 19 19 20 21 21 23 22 25
REMARK H PARENT 17 20 22 26
REMARK Flexibility Score:  149.900
ROOT
ATOM      1  C   UNL     1      48.109  56.321  20.249  1.00  0.00    +0.000 C 
ENDROOT
BRANCH   1   2
ATOM      2  C   UNL     1      49.113  57.474  20.358  1.00  0.00    +0.001 C 
BRANCH   2   3
ATOM      3  C   UNL     1      49.996  57.405  21.610  1.00  0.00    +0.012 C 
BRANCH   3   4
ATOM      4  C   UNL     1      51.452  57.822  21.402  1.00  0.00    +0.123 C 
BRANCH   4   5
ATOM      5  C   UNL     1      52.439  56.738  21.769  1.00  0.00    +0.305 C 
ATOM      6  O   UNL     1      52.338  55.981  22.723  1.00  0.00    -0.252 OA
BRANCH   5   7
ATOM      7  O   UNL     1      53.480  56.754  20.889  1.00  0.00    -0.469 OA
ATOM      8  C   UNL     1      54.120  58.025  20.771  1.00  0.00    +0.282 C 
ENDBRANCH   5   7
ENDBRANCH   4   5
ENDBRANCH   3   4
ENDBRANCH   2   3
ENDBRANCH   1   2
BRANCH   1   9
ATOM      9  C   UNL     1      48.827  54.989  20.014  1.00  0.00    +0.002 C 
BRANCH   9  10
ATOM     10  C   UNL     1      49.799  55.019  18.829  1.00  0.00    +0.022 C 
BRANCH  10  11
ATOM     11  C   UNL     1      51.228  54.569  19.143  1.00  0.00    +0.125 C 
BRANCH  11  12
ATOM     12  N   UNL     1      51.315  53.235  19.700  1.00  0.00    -0.317 N 
ATOM     13  C   UNL     1      51.755  52.947  20.968  1.00  0.00    +0.201 A 
ATOM     14  C   UNL     1      50.934  52.052  19.122  1.00  0.00    +0.137 A 
ATOM     15  N   UNL     1      51.701  51.660  21.226  1.00  0.00    -0.237 NA
ATOM     16  C   UNL     1      51.186  51.093  20.079  1.00  0.00    +0.113 A 
BRANCH  14  17
ATOM     17  N   UNL     1      50.439  51.921  17.870  1.00  0.00    -0.331 N 
ATOM     18  C   UNL     1      50.063  50.734  17.276  1.00  0.00    +0.192 C 
ATOM     19  N   UNL     1      49.758  49.572  17.720  1.00  0.00    -0.272 NA
ATOM     20  H   UNL     1      50.479  52.710  17.232  1.00  0.00    +0.169 HD
BRANCH  19  21
ATOM     21  C   UNL     1      49.656  49.336  19.171  1.00  0.00    +0.182 CG0
ATOM     22  G   UNL     1      50.935  49.625  19.971  1.00  0.00    +0.000 G0
ENDBRANCH  19  21
ENDBRANCH  14  17
BRANCH  16  23
ATOM     23  C   UNL     1      50.948  49.624  19.966  1.00  0.00    +0.188 CG0
ATOM     24  G   UNL     1      49.657  49.330  19.188  1.00  0.00    +0.000 G0
BRANCH  23  25
ATOM     25  O   UNL     1      50.857  49.031  21.271  1.00  0.00    -0.385 OA
ATOM     26  H   UNL     1      49.919  48.764  21.349  1.00  0.00    +0.211 HD
ENDBRANCH  23  25
ENDBRANCH  16  23
ENDBRANCH  11  12
ENDBRANCH  10  11
ENDBRANCH   9  10
ENDBRANCH   1   9
TORSDOF 10
ENDMDL
MODEL 5
REMARK VINA RESULT:    -5.748      1.884      3.080
REMARK INTER + INTRA:         -10.592
REMARK INTER:                 -10.249
REMARK INTRA:                  -0.343
REMARK UNBOUND:                -0.644
REMARK SMILES COC(=O)CCCCCCCn1cnc2c1NC=NCC2O
REMARK SMILES IDX 8 1 7 2 6 3 5 4 3 5 4 6 2 7 1 8 9 9 10 10 11 11 12 12 13 13
REMARK SMILES IDX 16 14 14 15 15 16 17 17 18 18 19 19 20 21 21 23 22 25
REMARK H PARENT 17 20 22 26
REMARK Flexibility Score:  149.900
ROOT
ATOM      1  C   UNL     1      48.988  54.224  18.726  1.00  0.00    +0.000 C 
ENDROOT
BRANCH   1   2
ATOM      2  C   UNL     1      48.681  55.654  19.181  1.00  0.00    +0.001 C 
BRANCH   2   3
ATOM      3  C   UNL     1      49.147  55.959  20.610  1.00  0.00    +0.012 C 
BRANCH   3   4
ATOM      4  C   UNL     1      50.469  56.721  20.714  1.00  0.00    +0.123 C 
BRANCH   4   5
ATOM      5  C   UNL     1      51.629  55.845  21.129  1.00  0.00    +0.305 C 
ATOM      6  O   UNL     1      52.754  56.239  21.399  1.00  0.00    -0.252 OA
BRANCH   5   7
ATOM      7  O   UNL     1      51.237  54.539  21.125  1.00  0.00    -0.469 OA
ATOM      8  C   UNL     1      51.629  53.813  22.291  1.00  0.00    +0.282 C 
ENDBRANCH   5   7
ENDBRANCH   4   5
ENDBRANCH   3   4
ENDBRANCH   2   3
ENDBRANCH   1   2
BRANCH   1   9
ATOM      9  C   UNL     1      48.511  53.991  17.290  1.00  0.00    +0.002 C 
BRANCH   9  10
ATOM     10  C   UNL     1      47.777  52.660  17.098  1.00  0.00    +0.022 C 
BRANCH  10  11
ATOM     11  C   UNL     1      48.649  51.491  16.634  1.00  0.00    +0.125 C 
BRANCH  11  12
ATOM     12  N   UNL     1      49.136  50.655  17.713  1.00  0.00    -0.317 N 
ATOM     13  C   UNL     1      48.507  49.523  18.167  1.00  0.00    +0.201 A 
ATOM     14  C   UNL     1      50.301  50.787  18.422  1.00  0.00    +0.137 A 
ATOM     15  N   UNL     1      49.182  48.939  19.130  1.00  0.00    -0.237 NA
ATOM     16  C   UNL     1      50.306  49.721  19.295  1.00  0.00    +0.113 A 
BRANCH  14  17
ATOM     17  N   UNL     1      51.202  51.783  18.262  1.00  0.00    -0.331 N 
ATOM     18  C   UNL     1      52.365  51.938  18.987  1.00  0.00    +0.192 C 
ATOM     19  N   UNL     1      53.080  51.153  19.704  1.00  0.00    -0.272 NA
ATOM     20  H   UNL     1      50.965  52.583  17.683  1.00  0.00    +0.169 HD
BRANCH  19  21
ATOM     21  C   UNL     1      52.754  49.718  19.782  1.00  0.00    +0.182 CG0
ATOM     22  G   UNL     1      51.344  49.396  20.299  1.00  0.00    +0.000 G0
ENDBRANCH  19  21
ENDBRANCH  14  17
BRANCH  16  23
ATOM     23  C   UNL     1      51.357  49.386  20.301  1.00  0.00    +0.188 CG0
ATOM     24  G   UNL     1      52.759  49.721  19.770  1.00  0.00    +0.000 G0
BRANCH  23  25
ATOM     25  O   UNL     1      51.301  47.991  20.636  1.00  0.00    -0.385 OA
ATOM     26  H   UNL     1      52.188  47.795  20.998  1.00  0.00    +0.211 HD
ENDBRANCH  23  25
ENDBRANCH  16  23
ENDBRANCH  11  12
ENDBRANCH  10  11
ENDBRANCH   9  10
ENDBRANCH   1   9
TORSDOF 10
ENDMDL
