MODEL 1
REMARK VINA RESULT:    -6.241      0.000      0.000
REMARK INTER + INTRA:          -9.968
REMARK INTER:                 -10.072
REMARK INTRA:                   0.103
REMARK UNBOUND:                 0.103
REMARK SMILES CCCCCCCCn1cnc2c1NC=NCC2O
REMARK SMILES IDX 6 1 5 2 4 3 3 4 2 5 1 6 7 7 8 8 9 9 10 10 13 11 11 12 12 13
REMARK SMILES IDX 14 14 15 15 16 16 17 18 18 20 19 22
REMARK H PARENT 14 17 19 23
REMARK Flexibility Score:   92.900
ROOT
ATOM      1  C   UNL     1      47.565  58.033  20.558  1.00  0.00    +0.002 C 
ENDROOT
BRANCH   1   2
ATOM      2  C   UNL     1      47.829  59.179  19.576  1.00  0.00    +0.000 C 
BRANCH   2   3
ATOM      3  C   UNL     1      46.609  60.028  19.202  1.00  0.00    -0.000 C 
BRANCH   3   4
ATOM      4  C   UNL     1      46.914  61.442  18.699  1.00  0.00    -0.000 C 
BRANCH   4   5
ATOM      5  C   UNL     1      46.611  62.532  19.727  1.00  0.00    -0.003 C 
ATOM      6  C   UNL     1      45.175  63.022  19.608  1.00  0.00    +0.004 C 
ENDBRANCH   4   5
ENDBRANCH   3   4
ENDBRANCH   2   3
ENDBRANCH   1   2
BRANCH   1   7
ATOM      7  C   UNL     1      48.779  57.556  21.363  1.00  0.00    +0.022 C 
BRANCH   7   8
ATOM      8  C   UNL     1      49.976  57.097  20.529  1.00  0.00    +0.125 C 
BRANCH   8   9
ATOM      9  N   UNL     1      50.702  55.983  21.104  1.00  0.00    -0.317 N 
ATOM     10  C   UNL     1      51.460  56.053  22.242  1.00  0.00    +0.201 A 
ATOM     11  C   UNL     1      50.754  54.687  20.659  1.00  0.00    +0.137 A 
ATOM     12  N   UNL     1      52.003  54.896  22.540  1.00  0.00    -0.237 NA
ATOM     13  C   UNL     1      51.556  54.027  21.569  1.00  0.00    +0.113 A 
BRANCH  11  14
ATOM     14  N   UNL     1      50.114  54.221  19.560  1.00  0.00    -0.331 N 
ATOM     15  C   UNL     1      50.133  52.917  19.116  1.00  0.00    +0.192 C 
ATOM     16  N   UNL     1      50.912  51.920  19.322  1.00  0.00    -0.272 NA
ATOM     17  H   UNL     1      49.421  54.807  19.105  1.00  0.00    +0.169 HD
BRANCH  16  18
ATOM     18  C   UNL     1      52.163  52.109  20.090  1.00  0.00    +0.182 CG0
ATOM     19  G   UNL     1      51.939  52.582  21.540  1.00  0.00    +0.000 G0
ENDBRANCH  16  18
ENDBRANCH  11  14
BRANCH  13  20
ATOM     20  C   UNL     1      51.944  52.587  21.535  1.00  0.00    +0.188 CG0
ATOM     21  G   UNL     1      52.169  52.113  20.087  1.00  0.00    +0.000 G0
BRANCH  20  22
ATOM     22  O   UNL     1      50.958  51.749  22.156  1.00  0.00    -0.385 OA
ATOM     23  H   UNL     1      50.811  52.151  23.033  1.00  0.00    +0.211 HD
ENDBRANCH  20  22
ENDBRANCH  13  20
ENDBRANCH   8   9
ENDBRANCH   7   8
ENDBRANCH   1   7
TORSDOF 8
ENDMDL
MODEL 2
REMARK VINA RESULT:    -5.929      6.066      8.529
REMARK INTER + INTRA:          -9.466
REMARK INTER:                  -9.312
REMARK INTRA:                  -0.154
REMARK UNBOUND:                 0.103
REMARK SMILES CCCCCCCCn1cnc2c1NC=NCC2O
REMARK SMILES IDX 6 1 5 2 4 3 3 4 2 5 1 6 7 7 8 8 9 9 10 10 13 11 11 12 12 13
REMARK SMILES IDX 14 14 15 15 16 16 17 18 18 20 19 22
REMARK H PARENT 14 17 19 23
REMARK Flexibility Score:   92.900
ROOT
ATOM      1  C   UNL     1      47.557  48.696  14.875  1.00  0.00    +0.002 C 
ENDROOT
BRANCH   1   2
ATOM      2  C   UNL     1      46.058  48.540  15.152  1.00  0.00    +0.000 C 
BRANCH   2   3
ATOM      3  C   UNL     1      45.621  47.177  15.697  1.00  0.00    -0.000 C 
BRANCH   3   4
ATOM      4  C   UNL     1      44.514  47.210  16.755  1.00  0.00    -0.000 C 
BRANCH   4   5
ATOM      5  C   UNL     1      44.809  48.161  17.915  1.00  0.00    -0.003 C 
ATOM      6  C   UNL     1      45.356  47.413  19.121  1.00  0.00    +0.004 C 
ENDBRANCH   4   5
ENDBRANCH   3   4
ENDBRANCH   2   3
ENDBRANCH   1   2
BRANCH   1   7
ATOM      7  C   UNL     1      48.477  48.531  16.090  1.00  0.00    +0.022 C 
BRANCH   7   8
ATOM      8  C   UNL     1      49.353  49.743  16.413  1.00  0.00    +0.125 C 
BRANCH   8   9
ATOM      9  N   UNL     1      49.847  49.766  17.774  1.00  0.00    -0.317 N 
ATOM     10  C   UNL     1      49.436  48.916  18.766  1.00  0.00    +0.201 A 
ATOM     11  C   UNL     1      50.803  50.590  18.313  1.00  0.00    +0.137 A 
ATOM     12  N   UNL     1      50.052  49.154  19.901  1.00  0.00    -0.237 NA
ATOM     13  C   UNL     1      50.922  50.187  19.629  1.00  0.00    +0.113 A 
BRANCH  11  14
ATOM     14  N   UNL     1      51.459  51.560  17.634  1.00  0.00    -0.331 N 
ATOM     15  C   UNL     1      52.440  52.377  18.153  1.00  0.00    +0.192 C 
ATOM     16  N   UNL     1      52.777  52.714  19.344  1.00  0.00    -0.272 NA
ATOM     17  H   UNL     1      51.374  51.601  16.624  1.00  0.00    +0.169 HD
BRANCH  16  18
ATOM     18  C   UNL     1      51.939  52.298  20.491  1.00  0.00    +0.182 CG0
ATOM     19  G   UNL     1      51.830  50.771  20.663  1.00  0.00    +0.000 G0
ENDBRANCH  16  18
ENDBRANCH  11  14
BRANCH  13  20
ATOM     20  C   UNL     1      51.825  50.773  20.662  1.00  0.00    +0.188 CG0
ATOM     21  G   UNL     1      51.945  52.299  20.484  1.00  0.00    +0.000 G0
BRANCH  20  22
ATOM     22  O   UNL     1      53.136  50.191  20.625  1.00  0.00    -0.385 OA
ATOM     23  H   UNL     1      53.528  50.523  19.795  1.00  0.00    +0.211 HD
ENDBRANCH  20  22
ENDBRANCH  13  20
ENDBRANCH   8   9
ENDBRANCH   7   8
ENDBRANCH   1   7
TORSDOF 8
ENDMDL
MODEL 3
REMARK VINA RESULT:    -5.881      2.965      4.914
REMARK INTER + INTRA:          -9.387
REMARK INTER:                  -9.237
REMARK INTRA:                  -0.150
REMARK UNBOUND:                 0.103
REMARK SMILES CCCCCCCCn1cnc2c1NC=NCC2O
REMARK SMILES IDX 6 1 5 2 4 3 3 4 2 5 1 6 7 7 8 8 9 9 10 10 13 11 11 12 12 13
REMARK SMILES IDX 14 14 15 15 16 16 17 18 18 20 19 22
REMARK H PARENT 14 17 19 23
REMARK Flexibility Score:   92.900
ROOT
ATOM      1  C   UNL     1      48.623  54.590  17.761  1.00  0.00    +0.002 C 
ENDROOT
BRANCH   1   2
ATOM      2  C   UNL     1      48.737  54.910  19.254  1.00  0.00    +0.000 C 
BRANCH   2   3
ATOM      3  C   UNL     1      49.657  56.081  19.615  1.00  0.00    -0.000 C 
BRANCH   3   4
ATOM      4  C   UNL     1      49.939  56.268  21.109  1.00  0.00    -0.000 C 
BRANCH   4   5
ATOM      5  C   UNL     1      49.367  57.568  21.676  1.00  0.00    -0.003 C 
ATOM      6  C   UNL     1      48.065  57.948  20.988  1.00  0.00    +0.004 C 
ENDBRANCH   4   5
ENDBRANCH   3   4
ENDBRANCH   2   3
ENDBRANCH   1   2
BRANCH   1   7
ATOM      7  C   UNL     1      47.873  53.299  17.413  1.00  0.00    +0.022 C 
BRANCH   7   8
ATOM      8  C   UNL     1      48.724  52.204  16.768  1.00  0.00    +0.125 C 
BRANCH   8   9
ATOM      9  N   UNL     1      49.204  51.204  17.699  1.00  0.00    -0.317 N 
ATOM     10  C   UNL     1      48.585  50.007  17.942  1.00  0.00    +0.201 A 
ATOM     11  C   UNL     1      50.337  51.241  18.472  1.00  0.00    +0.137 A 
ATOM     12  N   UNL     1      49.237  49.289  18.828  1.00  0.00    -0.237 NA
ATOM     13  C   UNL     1      50.344  50.041  19.155  1.00  0.00    +0.113 A 
BRANCH  11  14
ATOM     14  N   UNL     1      51.222  52.265  18.495  1.00  0.00    -0.331 N 
ATOM     15  C   UNL     1      52.376  52.308  19.247  1.00  0.00    +0.192 C 
ATOM     16  N   UNL     1      52.782  51.678  20.287  1.00  0.00    -0.272 NA
ATOM     17  H   UNL     1      51.155  52.994  17.792  1.00  0.00    +0.169 HD
BRANCH  16  18
ATOM     18  C   UNL     1      51.861  50.766  21.002  1.00  0.00    +0.182 CG0
ATOM     19  G   UNL     1      51.371  49.580  20.150  1.00  0.00    +0.000 G0
ENDBRANCH  16  18
ENDBRANCH  11  14
BRANCH  13  20
ATOM     20  C   UNL     1      51.364  49.585  20.144  1.00  0.00    +0.188 CG0
ATOM     21  G   UNL     1      51.881  50.768  20.985  1.00  0.00    +0.000 G0
BRANCH  20  22
ATOM     22  O   UNL     1      52.477  48.937  19.511  1.00  0.00    -0.385 OA
ATOM     23  H   UNL     1      52.247  48.925  18.563  1.00  0.00    +0.211 HD
ENDBRANCH  20  22
ENDBRANCH  13  20
ENDBRANCH   8   9
ENDBRANCH   7   8
ENDBRANCH   1   7
TORSDOF 8
ENDMDL
MODEL 4
REMARK VINA RESULT:    -5.816      3.852      6.977
REMARK INTER + INTRA:          -9.282
REMARK INTER:                  -9.376
REMARK INTRA:                   0.094
REMARK UNBOUND:                 0.103
REMARK SMILES CCCCCCCCn1cnc2c1NC=NCC2O
REMARK SMILES IDX 6 1 5 2 4 3 3 4 2 5 1 6 7 7 8 8 9 9 10 10 13 11 11 12 12 13
REMARK SMILES IDX 14 14 15 15 16 16 17 18 18 20 19 22
REMARK H PARENT 14 17 19 23
REMARK Flexibility Score:   92.900
ROOT
ATOM      1  C   UNL     1      49.565  51.943  17.609  1.00  0.00    +0.002 C 
ENDROOT
BRANCH   1   2
ATOM      2  C   UNL     1      48.071  51.668  17.412  1.00  0.00    +0.000 C 
BRANCH   2   3
ATOM      3  C   UNL     1      47.696  50.210  17.126  1.00  0.00    -0.000 C 
BRANCH   3   4
ATOM      4  C   UNL     1      47.672  49.280  18.344  1.00  0.00    -0.000 C 
BRANCH   4   5
ATOM      5  C   UNL     1      46.477  48.326  18.356  1.00  0.00    -0.003 C 
ATOM      6  C   UNL     1      45.284  48.923  17.625  1.00  0.00    +0.004 C 
ENDBRANCH   4   5
ENDBRANCH   3   4
ENDBRANCH   2   3
ENDBRANCH   1   2
BRANCH   1   7
ATOM      7  C   UNL     1      50.163  51.446  18.930  1.00  0.00    +0.022 C 
BRANCH   7   8
ATOM      8  C   UNL     1      51.544  52.008  19.272  1.00  0.00    +0.125 C 
BRANCH   8   9
ATOM      9  N   UNL     1      51.561  52.857  20.445  1.00  0.00    -0.317 N 
ATOM     10  C   UNL     1      51.621  52.400  21.735  1.00  0.00    +0.201 A 
ATOM     11  C   UNL     1      51.549  54.228  20.499  1.00  0.00    +0.137 A 
ATOM     12  N   UNL     1      51.628  53.385  22.603  1.00  0.00    -0.237 NA
ATOM     13  C   UNL     1      51.601  54.534  21.844  1.00  0.00    +0.113 A 
BRANCH  11  14
ATOM     14  N   UNL     1      51.508  55.042  19.418  1.00  0.00    -0.331 N 
ATOM     15  C   UNL     1      51.522  56.419  19.453  1.00  0.00    +0.192 C 
ATOM     16  N   UNL     1      51.254  57.287  20.359  1.00  0.00    -0.272 NA
ATOM     17  H   UNL     1      51.654  54.647  18.494  1.00  0.00    +0.169 HD
BRANCH  16  18
ATOM     18  C   UNL     1      50.685  56.850  21.653  1.00  0.00    +0.182 CG0
ATOM     19  G   UNL     1      51.606  55.908  22.453  1.00  0.00    +0.000 G0
ENDBRANCH  16  18
ENDBRANCH  11  14
BRANCH  13  20
ATOM     20  C   UNL     1      51.599  55.899  22.447  1.00  0.00    +0.188 CG0
ATOM     21  G   UNL     1      50.693  56.852  21.645  1.00  0.00    +0.000 G0
BRANCH  20  22
ATOM     22  O   UNL     1      52.919  56.457  22.523  1.00  0.00    -0.385 OA
ATOM     23  H   UNL     1      52.912  56.994  23.338  1.00  0.00    +0.211 HD
ENDBRANCH  20  22
ENDBRANCH  13  20
ENDBRANCH   8   9
ENDBRANCH   7   8
ENDBRANCH   1   7
TORSDOF 8
ENDMDL
MODEL 5
REMARK VINA RESULT:    -5.783      4.488      7.105
REMARK INTER + INTRA:          -9.230
REMARK INTER:                  -9.053
REMARK INTRA:                  -0.177
REMARK UNBOUND:                 0.103
REMARK SMILES CCCCCCCCn1cnc2c1NC=NCC2O
REMARK SMILES IDX 6 1 5 2 4 3 3 4 2 5 1 6 7 7 8 8 9 9 10 10 13 11 11 12 12 13
REMARK SMILES IDX 14 14 15 15 16 16 17 18 18 20 19 22
REMARK H PARENT 14 17 19 23
REMARK Flexibility Score:   92.900
ROOT
ATOM      1  C   UNL     1      50.780  49.140  20.603  1.00  0.00    +0.002 C 
ENDROOT
BRANCH   1   2
ATOM      2  C   UNL     1      49.498  48.872  19.808  1.00  0.00    +0.000 C 
BRANCH   2   3
ATOM      3  C   UNL     1      49.225  49.830  18.644  1.00  0.00    -0.000 C 
BRANCH   3   4
ATOM      4  C   UNL     1      47.867  49.667  17.954  1.00  0.00    -0.000 C 
BRANCH   4   5
ATOM      5  C   UNL     1      47.566  50.768  16.937  1.00  0.00    -0.003 C 
ATOM      6  C   UNL     1      48.641  51.845  16.952  1.00  0.00    +0.004 C 
ENDBRANCH   4   5
ENDBRANCH   3   4
ENDBRANCH   2   3
ENDBRANCH   1   2
BRANCH   1   7
ATOM      7  C   UNL     1      50.875  50.518  21.266  1.00  0.00    +0.022 C 
BRANCH   7   8
ATOM      8  C   UNL     1      52.226  51.220  21.119  1.00  0.00    +0.125 C 
BRANCH   8   9
ATOM      9  N   UNL     1      52.188  52.406  20.288  1.00  0.00    -0.317 N 
ATOM     10  C   UNL     1      52.307  52.403  18.924  1.00  0.00    +0.201 A 
ATOM     11  C   UNL     1      52.005  53.708  20.678  1.00  0.00    +0.137 A 
ATOM     12  N   UNL     1      52.231  53.615  18.423  1.00  0.00    -0.237 NA
ATOM     13  C   UNL     1      52.025  54.439  19.507  1.00  0.00    +0.113 A 
BRANCH  11  14
ATOM     14  N   UNL     1      51.833  54.113  21.959  1.00  0.00    -0.331 N 
ATOM     15  C   UNL     1      51.624  55.413  22.365  1.00  0.00    +0.192 C 
ATOM     16  N   UNL     1      51.841  56.557  21.828  1.00  0.00    -0.272 NA
ATOM     17  H   UNL     1      51.665  53.419  22.680  1.00  0.00    +0.169 HD
BRANCH  16  18
ATOM     18  C   UNL     1      52.578  56.642  20.548  1.00  0.00    +0.182 CG0
ATOM     19  G   UNL     1      51.880  55.922  19.378  1.00  0.00    +0.000 G0
ENDBRANCH  16  18
ENDBRANCH  11  14
BRANCH  13  20
ATOM     20  C   UNL     1      51.880  55.919  19.378  1.00  0.00    +0.188 CG0
ATOM     21  G   UNL     1      52.581  56.642  20.545  1.00  0.00    +0.000 G0
BRANCH  20  22
ATOM     22  O   UNL     1      50.505  56.325  19.333  1.00  0.00    -0.385 OA
ATOM     23  H   UNL     1      50.210  56.091  18.433  1.00  0.00    +0.211 HD
ENDBRANCH  20  22
ENDBRANCH  13  20
ENDBRANCH   8   9
ENDBRANCH   7   8
ENDBRANCH   1   7
TORSDOF 8
ENDMDL
