MODEL 1
REMARK VINA RESULT:    -7.563      0.000      0.000
REMARK INTER + INTRA:         -11.926
REMARK INTER:                 -11.763
REMARK INTRA:                  -0.163
REMARK UNBOUND:                -0.163
REMARK SMILES COC(=O)c1ccccc1CCCn1cnc2c1NC=NCC2O
REMARK SMILES IDX 12 1 11 2 10 3 5 4 6 5 7 6 9 7 8 8 3 9 4 10 2 11 1 12 13 13
REMARK SMILES IDX 14 14 15 15 18 16 16 17 17 18 19 19 20 20 21 21 22 23 23 25
REMARK SMILES IDX 24 27
REMARK H PARENT 19 22 24 28
REMARK Flexibility Score:   49.900
ROOT
ATOM      1  C   UNL     1      50.980  54.522  18.832  1.00  0.00    +0.027 C 
ENDROOT
BRANCH   1   2
ATOM      2  C   UNL     1      50.224  54.447  20.163  1.00  0.00    +0.038 C 
BRANCH   2   3
ATOM      3  C   UNL     1      49.680  55.777  20.641  1.00  0.00    -0.033 A 
ATOM      4  C   UNL     1      50.366  56.622  21.539  1.00  0.00    +0.063 A 
ATOM      5  C   UNL     1      49.804  57.856  21.911  1.00  0.00    +0.016 A 
ATOM      6  C   UNL     1      48.571  58.258  21.398  1.00  0.00    +0.001 A 
ATOM      7  C   UNL     1      48.433  56.201  20.143  1.00  0.00    +0.004 A 
ATOM      8  C   UNL     1      47.886  57.429  20.516  1.00  0.00    +0.000 A 
BRANCH   4   9
ATOM      9  C   UNL     1      51.671  56.231  22.140  1.00  0.00    +0.338 C 
ATOM     10  O   UNL     1      51.798  55.629  23.192  1.00  0.00    -0.246 OA
BRANCH   9  11
ATOM     11  O   UNL     1      52.676  56.607  21.307  1.00  0.00    -0.465 OA
ATOM     12  C   UNL     1      53.384  57.768  21.745  1.00  0.00    +0.282 C 
ENDBRANCH   9  11
ENDBRANCH   4   9
ENDBRANCH   2   3
ENDBRANCH   1   2
BRANCH   1  13
ATOM     13  C   UNL     1      52.197  53.596  18.790  1.00  0.00    +0.125 C 
BRANCH  13  14
ATOM     14  N   UNL     1      51.925  52.311  19.404  1.00  0.00    -0.317 N 
ATOM     15  C   UNL     1      52.382  51.933  20.641  1.00  0.00    +0.201 A 
ATOM     16  C   UNL     1      51.196  51.266  18.898  1.00  0.00    +0.137 A 
ATOM     17  N   UNL     1      51.997  50.715  20.954  1.00  0.00    -0.237 NA
ATOM     18  C   UNL     1      51.256  50.292  19.871  1.00  0.00    +0.113 A 
BRANCH  16  19
ATOM     19  N   UNL     1      50.587  51.254  17.690  1.00  0.00    -0.331 N 
ATOM     20  C   UNL     1      49.864  50.202  17.168  1.00  0.00    +0.192 C 
ATOM     21  N   UNL     1      49.300  49.167  17.673  1.00  0.00    -0.272 NA
ATOM     22  H   UNL     1      50.770  52.000  17.028  1.00  0.00    +0.169 HD
BRANCH  21  23
ATOM     23  C   UNL     1      49.257  48.987  19.136  1.00  0.00    +0.182 CG0
ATOM     24  G   UNL     1      50.629  48.954  19.829  1.00  0.00    +0.000 G0
ENDBRANCH  21  23
ENDBRANCH  16  19
BRANCH  18  25
ATOM     25  C   UNL     1      50.619  48.942  19.832  1.00  0.00    +0.188 CG0
ATOM     26  G   UNL     1      49.241  48.998  19.154  1.00  0.00    +0.000 G0
BRANCH  25  27
ATOM     27  O   UNL     1      50.468  48.424  21.162  1.00  0.00    -0.385 OA
ATOM     28  H   UNL     1      50.387  47.457  21.035  1.00  0.00    +0.211 HD
ENDBRANCH  25  27
ENDBRANCH  18  25
ENDBRANCH  13  14
ENDBRANCH   1  13
TORSDOF 7
ENDMDL
MODEL 2
REMARK VINA RESULT:    -7.517      1.664      2.095
REMARK INTER + INTRA:         -11.855
REMARK INTER:                 -11.653
REMARK INTRA:                  -0.202
REMARK UNBOUND:                -0.163
REMARK SMILES COC(=O)c1ccccc1CCCn1cnc2c1NC=NCC2O
REMARK SMILES IDX 12 1 11 2 10 3 5 4 6 5 7 6 9 7 8 8 3 9 4 10 2 11 1 12 13 13
REMARK SMILES IDX 14 14 15 15 18 16 16 17 17 18 19 19 20 20 21 21 22 23 23 25
REMARK SMILES IDX 24 27
REMARK H PARENT 19 22 24 28
REMARK Flexibility Score:   49.900
ROOT
ATOM      1  C   UNL     1      50.504  53.256  20.677  1.00  0.00    +0.027 C 
ENDROOT
BRANCH   1   2
ATOM      2  C   UNL     1      50.832  54.590  19.998  1.00  0.00    +0.038 C 
BRANCH   2   3
ATOM      3  C   UNL     1      49.980  55.750  20.467  1.00  0.00    -0.033 A 
ATOM      4  C   UNL     1      50.402  56.685  21.436  1.00  0.00    +0.063 A 
ATOM      5  C   UNL     1      49.560  57.753  21.795  1.00  0.00    +0.016 A 
ATOM      6  C   UNL     1      48.308  57.901  21.199  1.00  0.00    +0.001 A 
ATOM      7  C   UNL     1      48.708  55.916  19.885  1.00  0.00    +0.004 A 
ATOM      8  C   UNL     1      47.882  56.982  20.247  1.00  0.00    +0.000 A 
BRANCH   4   9
ATOM      9  C   UNL     1      51.716  56.559  22.125  1.00  0.00    +0.338 C 
ATOM     10  O   UNL     1      52.012  55.663  22.896  1.00  0.00    -0.246 OA
BRANCH   9  11
ATOM     11  O   UNL     1      52.532  57.566  21.717  1.00  0.00    -0.465 OA
ATOM     12  C   UNL     1      53.395  57.208  20.637  1.00  0.00    +0.282 C 
ENDBRANCH   9  11
ENDBRANCH   4   9
ENDBRANCH   2   3
ENDBRANCH   1   2
BRANCH   1  13
ATOM     13  C   UNL     1      51.417  52.118  20.218  1.00  0.00    +0.125 C 
BRANCH  13  14
ATOM     14  N   UNL     1      50.666  51.004  19.670  1.00  0.00    -0.317 N 
ATOM     15  C   UNL     1      50.642  49.746  20.216  1.00  0.00    +0.201 A 
ATOM     16  C   UNL     1      49.872  50.984  18.553  1.00  0.00    +0.137 A 
ATOM     17  N   UNL     1      49.889  48.925  19.518  1.00  0.00    -0.237 NA
ATOM     18  C   UNL     1      49.404  49.690  18.479  1.00  0.00    +0.113 A 
BRANCH  16  19
ATOM     19  N   UNL     1      49.648  52.039  17.736  1.00  0.00    -0.331 N 
ATOM     20  C   UNL     1      48.854  52.025  16.609  1.00  0.00    +0.192 C 
ATOM     21  N   UNL     1      47.920  51.257  16.183  1.00  0.00    -0.272 NA
ATOM     22  H   UNL     1      50.200  52.883  17.845  1.00  0.00    +0.169 HD
BRANCH  21  23
ATOM     23  C   UNL     1      47.420  50.159  17.031  1.00  0.00    +0.182 CG0
ATOM     24  G   UNL     1      48.475  49.120  17.442  1.00  0.00    +0.000 G0
ENDBRANCH  21  23
ENDBRANCH  16  19
BRANCH  18  25
ATOM     25  C   UNL     1      48.485  49.124  17.447  1.00  0.00    +0.188 CG0
ATOM     26  G   UNL     1      47.418  50.150  17.032  1.00  0.00    +0.000 G0
BRANCH  25  27
ATOM     27  O   UNL     1      47.835  47.947  17.950  1.00  0.00    -0.385 OA
ATOM     28  H   UNL     1      46.885  48.183  17.960  1.00  0.00    +0.211 HD
ENDBRANCH  25  27
ENDBRANCH  18  25
ENDBRANCH  13  14
ENDBRANCH   1  13
TORSDOF 7
ENDMDL
MODEL 3
REMARK VINA RESULT:    -7.392      1.893      2.820
REMARK INTER + INTRA:         -11.661
REMARK INTER:                 -11.270
REMARK INTRA:                  -0.391
REMARK UNBOUND:                -0.163
REMARK SMILES COC(=O)c1ccccc1CCCn1cnc2c1NC=NCC2O
REMARK SMILES IDX 12 1 11 2 10 3 5 4 6 5 7 6 9 7 8 8 3 9 4 10 2 11 1 12 13 13
REMARK SMILES IDX 14 14 15 15 18 16 16 17 17 18 19 19 20 20 21 21 22 23 23 25
REMARK SMILES IDX 24 27
REMARK H PARENT 19 22 24 28
REMARK Flexibility Score:   49.900
ROOT
ATOM      1  C   UNL     1      48.698  54.785  17.753  1.00  0.00    +0.027 C 
ENDROOT
BRANCH   1   2
ATOM      2  C   UNL     1      48.398  54.573  19.241  1.00  0.00    +0.038 C 
BRANCH   2   3
ATOM      3  C   UNL     1      48.766  55.750  20.120  1.00  0.00    -0.033 A 
ATOM      4  C   UNL     1      50.005  55.869  20.785  1.00  0.00    +0.063 A 
ATOM      5  C   UNL     1      50.280  57.011  21.559  1.00  0.00    +0.016 A 
ATOM      6  C   UNL     1      49.338  58.032  21.677  1.00  0.00    +0.001 A 
ATOM      7  C   UNL     1      47.828  56.792  20.260  1.00  0.00    +0.004 A 
ATOM      8  C   UNL     1      48.113  57.921  21.029  1.00  0.00    +0.000 A 
BRANCH   4   9
ATOM      9  C   UNL     1      51.035  54.796  20.718  1.00  0.00    +0.338 C 
ATOM     10  O   UNL     1      51.902  54.720  19.864  1.00  0.00    -0.246 OA
BRANCH   9  11
ATOM     11  O   UNL     1      50.880  53.961  21.778  1.00  0.00    -0.465 OA
ATOM     12  C   UNL     1      50.879  52.577  21.427  1.00  0.00    +0.282 C 
ENDBRANCH   9  11
ENDBRANCH   4   9
ENDBRANCH   2   3
ENDBRANCH   1   2
BRANCH   1  13
ATOM     13  C   UNL     1      48.256  53.604  16.888  1.00  0.00    +0.125 C 
BRANCH  13  14
ATOM     14  N   UNL     1      48.834  52.352  17.338  1.00  0.00    -0.317 N 
ATOM     15  C   UNL     1      50.145  52.196  17.713  1.00  0.00    +0.201 A 
ATOM     16  C   UNL     1      48.220  51.134  17.473  1.00  0.00    +0.137 A 
ATOM     17  N   UNL     1      50.407  50.959  18.072  1.00  0.00    -0.237 NA
ATOM     18  C   UNL     1      49.211  50.289  17.925  1.00  0.00    +0.113 A 
BRANCH  16  19
ATOM     19  N   UNL     1      46.921  50.881  17.192  1.00  0.00    -0.331 N 
ATOM     20  C   UNL     1      46.298  49.657  17.320  1.00  0.00    +0.192 C 
ATOM     21  N   UNL     1      46.563  48.582  17.966  1.00  0.00    -0.272 NA
ATOM     22  H   UNL     1      46.366  51.582  16.714  1.00  0.00    +0.169 HD
BRANCH  21  23
ATOM     23  C   UNL     1      47.710  48.539  18.892  1.00  0.00    +0.182 CG0
ATOM     24  G   UNL     1      49.076  48.832  18.252  1.00  0.00    +0.000 G0
ENDBRANCH  21  23
ENDBRANCH  16  19
BRANCH  18  25
ATOM     25  C   UNL     1      49.077  48.838  18.245  1.00  0.00    +0.188 CG0
ATOM     26  G   UNL     1      47.717  48.536  18.895  1.00  0.00    +0.000 G0
BRANCH  25  27
ATOM     27  O   UNL     1      50.125  48.425  19.136  1.00  0.00    -0.385 OA
ATOM     28  H   UNL     1      49.788  47.598  19.537  1.00  0.00    +0.211 HD
ENDBRANCH  25  27
ENDBRANCH  18  25
ENDBRANCH  13  14
ENDBRANCH   1  13
TORSDOF 7
ENDMDL
MODEL 4
REMARK VINA RESULT:    -7.326      1.461      1.868
REMARK INTER + INTRA:         -11.558
REMARK INTER:                 -11.185
REMARK INTRA:                  -0.373
REMARK UNBOUND:                -0.163
REMARK SMILES COC(=O)c1ccccc1CCCn1cnc2c1NC=NCC2O
REMARK SMILES IDX 12 1 11 2 10 3 5 4 6 5 7 6 9 7 8 8 3 9 4 10 2 11 1 12 13 13
REMARK SMILES IDX 14 14 15 15 18 16 16 17 17 18 19 19 20 20 21 21 22 23 23 25
REMARK SMILES IDX 24 27
REMARK H PARENT 19 22 24 28
REMARK Flexibility Score:   49.900
ROOT
ATOM      1  C   UNL     1      48.697  54.341  18.568  1.00  0.00    +0.027 C 
ENDROOT
BRANCH   1   2
ATOM      2  C   UNL     1      49.281  55.752  18.435  1.00  0.00    +0.038 C 
BRANCH   2   3
ATOM      3  C   UNL     1      49.084  56.622  19.658  1.00  0.00    -0.033 A 
ATOM      4  C   UNL     1      50.047  56.757  20.682  1.00  0.00    +0.063 A 
ATOM      5  C   UNL     1      49.798  57.610  21.771  1.00  0.00    +0.016 A 
ATOM      6  C   UNL     1      48.606  58.330  21.851  1.00  0.00    +0.001 A 
ATOM      7  C   UNL     1      47.886  57.354  19.765  1.00  0.00    +0.004 A 
ATOM      8  C   UNL     1      47.651  58.200  20.850  1.00  0.00    +0.000 A 
BRANCH   4   9
ATOM      9  C   UNL     1      51.323  55.990  20.662  1.00  0.00    +0.338 C 
ATOM     10  O   UNL     1      51.496  54.918  21.213  1.00  0.00    -0.246 OA
BRANCH   9  11
ATOM     11  O   UNL     1      52.229  56.652  19.897  1.00  0.00    -0.465 OA
ATOM     12  C   UNL     1      53.337  57.172  20.633  1.00  0.00    +0.282 C 
ENDBRANCH   9  11
ENDBRANCH   4   9
ENDBRANCH   2   3
ENDBRANCH   1   2
BRANCH   1  13
ATOM     13  C   UNL     1      49.328  53.345  17.594  1.00  0.00    +0.125 C 
BRANCH  13  14
ATOM     14  N   UNL     1      50.364  52.549  18.223  1.00  0.00    -0.317 N 
ATOM     15  C   UNL     1      51.616  53.015  18.533  1.00  0.00    +0.201 A 
ATOM     16  C   UNL     1      50.305  51.236  18.613  1.00  0.00    +0.137 A 
ATOM     17  N   UNL     1      52.360  52.086  19.091  1.00  0.00    -0.237 NA
ATOM     18  C   UNL     1      51.549  50.972  19.145  1.00  0.00    +0.113 A 
BRANCH  16  19
ATOM     19  N   UNL     1      49.232  50.427  18.467  1.00  0.00    -0.331 N 
ATOM     20  C   UNL     1      49.167  49.104  18.853  1.00  0.00    +0.192 C 
ATOM     21  N   UNL     1      49.843  48.375  19.663  1.00  0.00    -0.272 NA
ATOM     22  H   UNL     1      48.443  50.735  17.909  1.00  0.00    +0.169 HD
BRANCH  21  23
ATOM     23  C   UNL     1      50.891  48.980  20.505  1.00  0.00    +0.182 CG0
ATOM     24  G   UNL     1      52.023  49.678  19.735  1.00  0.00    +0.000 G0
ENDBRANCH  21  23
ENDBRANCH  16  19
BRANCH  18  25
ATOM     25  C   UNL     1      52.022  49.682  19.728  1.00  0.00    +0.188 CG0
ATOM     26  G   UNL     1      50.896  48.977  20.502  1.00  0.00    +0.000 G0
BRANCH  25  27
ATOM     27  O   UNL     1      53.129  49.911  20.613  1.00  0.00    -0.385 OA
ATOM     28  H   UNL     1      53.489  49.017  20.784  1.00  0.00    +0.211 HD
ENDBRANCH  25  27
ENDBRANCH  18  25
ENDBRANCH  13  14
ENDBRANCH   1  13
TORSDOF 7
ENDMDL
MODEL 5
REMARK VINA RESULT:    -7.312      1.319      2.470
REMARK INTER + INTRA:         -11.536
REMARK INTER:                 -11.131
REMARK INTRA:                  -0.405
REMARK UNBOUND:                -0.163
REMARK SMILES COC(=O)c1ccccc1CCCn1cnc2c1NC=NCC2O
REMARK SMILES IDX 12 1 11 2 10 3 5 4 6 5 7 6 9 7 8 8 3 9 4 10 2 11 1 12 13 13
REMARK SMILES IDX 14 14 15 15 18 16 16 17 17 18 19 19 20 20 21 21 22 23 23 25
REMARK SMILES IDX 24 27
REMARK H PARENT 19 22 24 28
REMARK Flexibility Score:   49.900
ROOT
ATOM      1  C   UNL     1      48.587  54.305  18.390  1.00  0.00    +0.027 C 
ENDROOT
BRANCH   1   2
ATOM      2  C   UNL     1      49.508  55.526  18.490  1.00  0.00    +0.038 C 
BRANCH   2   3
ATOM      3  C   UNL     1      49.170  56.465  19.628  1.00  0.00    -0.033 A 
ATOM      4  C   UNL     1      50.086  56.824  20.640  1.00  0.00    +0.063 A 
ATOM      5  C   UNL     1      49.701  57.728  21.647  1.00  0.00    +0.016 A 
ATOM      6  C   UNL     1      48.420  58.278  21.656  1.00  0.00    +0.001 A 
ATOM      7  C   UNL     1      47.879  57.028  19.663  1.00  0.00    +0.004 A 
ATOM      8  C   UNL     1      47.509  57.926  20.665  1.00  0.00    +0.000 A 
BRANCH   4   9
ATOM      9  C   UNL     1      51.457  56.246  20.696  1.00  0.00    +0.338 C 
ATOM     10  O   UNL     1      51.712  55.097  21.013  1.00  0.00    -0.246 OA
BRANCH   9  11
ATOM     11  O   UNL     1      52.353  57.183  20.293  1.00  0.00    -0.465 OA
ATOM     12  C   UNL     1      53.313  57.531  21.291  1.00  0.00    +0.282 C 
ENDBRANCH   9  11
ENDBRANCH   4   9
ENDBRANCH   2   3
ENDBRANCH   1   2
BRANCH   1  13
ATOM     13  C   UNL     1      49.085  53.270  17.380  1.00  0.00    +0.125 C 
BRANCH  13  14
ATOM     14  N   UNL     1      49.305  51.973  17.992  1.00  0.00    -0.317 N 
ATOM     15  C   UNL     1      48.507  50.877  17.787  1.00  0.00    +0.201 A 
ATOM     16  C   UNL     1      50.303  51.601  18.855  1.00  0.00    +0.137 A 
ATOM     17  N   UNL     1      48.927  49.833  18.466  1.00  0.00    -0.237 NA
ATOM     18  C   UNL     1      50.048  50.276  19.135  1.00  0.00    +0.113 A 
BRANCH  16  19
ATOM     19  N   UNL     1      51.287  52.412  19.305  1.00  0.00    -0.331 N 
ATOM     20  C   UNL     1      52.291  52.046  20.177  1.00  0.00    +0.192 C 
ATOM     21  N   UNL     1      52.789  50.924  20.546  1.00  0.00    -0.272 NA
ATOM     22  H   UNL     1      51.238  53.409  19.123  1.00  0.00    +0.169 HD
BRANCH  21  23
ATOM     23  C   UNL     1      52.349  49.672  19.905  1.00  0.00    +0.182 CG0
ATOM     24  G   UNL     1      50.844  49.379  20.013  1.00  0.00    +0.000 G0
ENDBRANCH  21  23
ENDBRANCH  16  19
BRANCH  18  25
ATOM     25  C   UNL     1      50.842  49.377  20.024  1.00  0.00    +0.188 CG0
ATOM     26  G   UNL     1      52.347  49.664  19.903  1.00  0.00    +0.000 G0
BRANCH  25  27
ATOM     27  O   UNL     1      50.597  48.002  19.689  1.00  0.00    -0.385 OA
ATOM     28  H   UNL     1      50.008  47.682  20.402  1.00  0.00    +0.211 HD
ENDBRANCH  25  27
ENDBRANCH  18  25
ENDBRANCH  13  14
ENDBRANCH   1  13
TORSDOF 7
ENDMDL
