MODEL 1
REMARK VINA RESULT:    -7.579      0.000      0.000
REMARK INTER + INTRA:         -12.126
REMARK INTER:                 -11.789
REMARK INTRA:                  -0.337
REMARK UNBOUND:                -0.337
REMARK SMILES COC(=O)c1c(F)cccc1CCCn1cnc2c1NC=NCC2O
REMARK SMILES IDX 13 1 12 2 11 3 5 4 6 5 8 6 10 7 9 8 7 9 3 10 4 11 2 12 1 13
REMARK SMILES IDX 14 14 15 15 16 16 19 17 17 18 18 19 20 20 21 21 22 22 23 24
REMARK SMILES IDX 24 26 25 28
REMARK H PARENT 20 23 25 29
REMARK Flexibility Score:   49.900
ROOT
ATOM      1  C   UNL     1      51.529  53.472  18.858  1.00  0.00    +0.027 C 
ENDROOT
BRANCH   1   2
ATOM      2  C   UNL     1      50.835  53.595  20.216  1.00  0.00    +0.038 C 
BRANCH   2   3
ATOM      3  C   UNL     1      50.042  54.873  20.385  1.00  0.00    -0.030 A 
ATOM      4  C   UNL     1      50.474  55.952  21.193  1.00  0.00    +0.098 A 
ATOM      5  C   UNL     1      49.647  57.070  21.351  1.00  0.00    +0.138 A 
ATOM      6  C   UNL     1      48.420  57.155  20.701  1.00  0.00    +0.040 A 
ATOM      7  C   UNL     1      48.799  54.977  19.732  1.00  0.00    +0.005 A 
ATOM      8  C   UNL     1      47.998  56.111  19.884  1.00  0.00    +0.003 A 
ATOM      9  F   UNL     1      49.996  58.082  22.159  1.00  0.00    -0.206 F 
BRANCH   4  10
ATOM     10  C   UNL     1      51.788  55.926  21.885  1.00  0.00    +0.341 C 
ATOM     11  O   UNL     1      51.982  55.431  22.986  1.00  0.00    -0.246 OA
BRANCH  10  12
ATOM     12  O   UNL     1      52.738  56.415  21.053  1.00  0.00    -0.465 OA
ATOM     13  C   UNL     1      53.459  57.547  21.544  1.00  0.00    +0.282 C 
ENDBRANCH  10  12
ENDBRANCH   4  10
ENDBRANCH   2   3
ENDBRANCH   1   2
BRANCH   1  14
ATOM     14  C   UNL     1      52.141  52.082  18.688  1.00  0.00    +0.125 C 
BRANCH  14  15
ATOM     15  N   UNL     1      51.161  51.029  18.867  1.00  0.00    -0.317 N 
ATOM     16  C   UNL     1      51.035  50.257  19.990  1.00  0.00    +0.201 A 
ATOM     17  C   UNL     1      50.233  50.594  17.957  1.00  0.00    +0.137 A 
ATOM     18  N   UNL     1      50.091  49.352  19.852  1.00  0.00    -0.237 NA
ATOM     19  C   UNL     1      49.603  49.535  18.575  1.00  0.00    +0.113 A 
BRANCH  17  20
ATOM     20  N   UNL     1      50.018  51.156  16.745  1.00  0.00    -0.331 N 
ATOM     21  C   UNL     1      49.076  50.743  15.828  1.00  0.00    +0.192 C 
ATOM     22  N   UNL     1      48.403  49.669  15.652  1.00  0.00    -0.272 NA
ATOM     23  H   UNL     1      50.348  52.111  16.568  1.00  0.00    +0.169 HD
BRANCH  22  24
ATOM     24  C   UNL     1      48.620  48.489  16.506  1.00  0.00    +0.182 CG0
ATOM     25  G   UNL     1      48.512  48.705  18.027  1.00  0.00    +0.000 G0
ENDBRANCH  22  24
ENDBRANCH  17  20
BRANCH  19  26
ATOM     26  C   UNL     1      48.499  48.701  18.025  1.00  0.00    +0.188 CG0
ATOM     27  G   UNL     1      48.618  48.495  16.504  1.00  0.00    +0.000 G0
BRANCH  26  28
ATOM     28  O   UNL     1      47.214  49.227  18.382  1.00  0.00    -0.385 OA
ATOM     29  H   UNL     1      46.892  48.638  19.087  1.00  0.00    +0.211 HD
ENDBRANCH  26  28
ENDBRANCH  19  26
ENDBRANCH  14  15
ENDBRANCH   1  14
TORSDOF 7
ENDMDL
MODEL 2
REMARK VINA RESULT:    -7.279      4.439      7.333
REMARK INTER + INTRA:         -11.659
REMARK INTER:                 -10.998
REMARK INTRA:                  -0.661
REMARK UNBOUND:                -0.337
REMARK SMILES COC(=O)c1c(F)cccc1CCCn1cnc2c1NC=NCC2O
REMARK SMILES IDX 13 1 12 2 11 3 5 4 6 5 8 6 10 7 9 8 7 9 3 10 4 11 2 12 1 13
REMARK SMILES IDX 14 14 15 15 16 16 19 17 17 18 18 19 20 20 21 21 22 22 23 24
REMARK SMILES IDX 24 26 25 28
REMARK H PARENT 20 23 25 29
REMARK Flexibility Score:   49.900
ROOT
ATOM      1  C   UNL     1      48.570  53.919  18.252  1.00  0.00    +0.027 C 
ENDROOT
BRANCH   1   2
ATOM      2  C   UNL     1      49.774  53.015  17.974  1.00  0.00    +0.038 C 
BRANCH   2   3
ATOM      3  C   UNL     1      49.549  51.565  18.341  1.00  0.00    -0.030 A 
ATOM      4  C   UNL     1      50.339  50.875  19.292  1.00  0.00    +0.098 A 
ATOM      5  C   UNL     1      50.110  49.514  19.522  1.00  0.00    +0.138 A 
ATOM      6  C   UNL     1      49.095  48.832  18.856  1.00  0.00    +0.040 A 
ATOM      7  C   UNL     1      48.525  50.861  17.679  1.00  0.00    +0.005 A 
ATOM      8  C   UNL     1      48.297  49.508  17.940  1.00  0.00    +0.003 A 
ATOM      9  F   UNL     1      50.880  48.814  20.368  1.00  0.00    -0.206 F 
BRANCH   4  10
ATOM     10  C   UNL     1      51.415  51.561  20.053  1.00  0.00    +0.341 C 
ATOM     11  O   UNL     1      52.453  51.978  19.561  1.00  0.00    -0.246 OA
BRANCH  10  12
ATOM     12  O   UNL     1      51.000  51.759  21.327  1.00  0.00    -0.465 OA
ATOM     13  C   UNL     1      51.276  53.055  21.865  1.00  0.00    +0.282 C 
ENDBRANCH  10  12
ENDBRANCH   4  10
ENDBRANCH   2   3
ENDBRANCH   1   2
BRANCH   1  14
ATOM     14  C   UNL     1      48.947  55.390  18.081  1.00  0.00    +0.125 C 
BRANCH  14  15
ATOM     15  N   UNL     1      49.198  56.039  19.353  1.00  0.00    -0.317 N 
ATOM     16  C   UNL     1      48.237  56.591  20.155  1.00  0.00    +0.201 A 
ATOM     17  C   UNL     1      50.412  56.252  19.952  1.00  0.00    +0.137 A 
ATOM     18  N   UNL     1      48.760  57.150  21.224  1.00  0.00    -0.237 NA
ATOM     19  C   UNL     1      50.121  56.969  21.093  1.00  0.00    +0.113 A 
BRANCH  17  20
ATOM     20  N   UNL     1      51.596  55.796  19.481  1.00  0.00    -0.331 N 
ATOM     21  C   UNL     1      52.822  55.984  20.083  1.00  0.00    +0.192 C 
ATOM     22  N   UNL     1      53.276  56.792  20.965  1.00  0.00    -0.272 NA
ATOM     23  H   UNL     1      51.605  55.029  18.801  1.00  0.00    +0.169 HD
BRANCH  22  24
ATOM     24  C   UNL     1      52.434  57.870  21.512  1.00  0.00    +0.182 CG0
ATOM     25  G   UNL     1      51.087  57.451  22.128  1.00  0.00    +0.000 G0
ENDBRANCH  22  24
ENDBRANCH  17  20
BRANCH  19  26
ATOM     26  C   UNL     1      51.084  57.458  22.118  1.00  0.00    +0.188 CG0
ATOM     27  G   UNL     1      52.430  57.887  21.505  1.00  0.00    +0.000 G0
BRANCH  26  28
ATOM     28  O   UNL     1      51.270  56.497  23.166  1.00  0.00    -0.385 OA
ATOM     29  H   UNL     1      52.230  56.336  23.187  1.00  0.00    +0.211 HD
ENDBRANCH  26  28
ENDBRANCH  19  26
ENDBRANCH  14  15
ENDBRANCH   1  14
TORSDOF 7
ENDMDL
MODEL 3
REMARK VINA RESULT:    -7.190      1.536      2.072
REMARK INTER + INTRA:         -11.520
REMARK INTER:                 -11.339
REMARK INTRA:                  -0.181
REMARK UNBOUND:                -0.337
REMARK SMILES COC(=O)c1c(F)cccc1CCCn1cnc2c1NC=NCC2O
REMARK SMILES IDX 13 1 12 2 11 3 5 4 6 5 8 6 10 7 9 8 7 9 3 10 4 11 2 12 1 13
REMARK SMILES IDX 14 14 15 15 16 16 19 17 17 18 18 19 20 20 21 21 22 22 23 24
REMARK SMILES IDX 24 26 25 28
REMARK H PARENT 20 23 25 29
REMARK Flexibility Score:   49.900
ROOT
ATOM      1  C   UNL     1      50.448  52.911  20.406  1.00  0.00    +0.027 C 
ENDROOT
BRANCH   1   2
ATOM      2  C   UNL     1      51.087  54.300  20.338  1.00  0.00    +0.038 C 
BRANCH   2   3
ATOM      3  C   UNL     1      50.102  55.436  20.507  1.00  0.00    -0.030 A 
ATOM      4  C   UNL     1      50.329  56.535  21.371  1.00  0.00    +0.098 A 
ATOM      5  C   UNL     1      49.336  57.509  21.523  1.00  0.00    +0.138 A 
ATOM      6  C   UNL     1      48.139  57.433  20.816  1.00  0.00    +0.040 A 
ATOM      7  C   UNL     1      48.888  55.377  19.797  1.00  0.00    +0.005 A 
ATOM      8  C   UNL     1      47.918  56.371  19.945  1.00  0.00    +0.003 A 
ATOM      9  F   UNL     1      49.490  58.529  22.380  1.00  0.00    -0.206 F 
BRANCH   4  10
ATOM     10  C   UNL     1      51.599  56.680  22.126  1.00  0.00    +0.341 C 
ATOM     11  O   UNL     1      51.998  55.890  22.970  1.00  0.00    -0.246 OA
BRANCH  10  12
ATOM     12  O   UNL     1      52.288  57.740  21.639  1.00  0.00    -0.465 OA
ATOM     13  C   UNL     1      53.527  57.423  21.002  1.00  0.00    +0.282 C 
ENDBRANCH  10  12
ENDBRANCH   4  10
ENDBRANCH   2   3
ENDBRANCH   1   2
BRANCH   1  14
ATOM     14  C   UNL     1      50.853  52.069  19.197  1.00  0.00    +0.125 C 
BRANCH  14  15
ATOM     15  N   UNL     1      49.743  51.846  18.292  1.00  0.00    -0.317 N 
ATOM     16  C   UNL     1      49.068  52.829  17.620  1.00  0.00    +0.201 A 
ATOM     17  C   UNL     1      49.150  50.649  17.983  1.00  0.00    +0.137 A 
ATOM     18  N   UNL     1      48.079  52.338  16.908  1.00  0.00    -0.237 NA
ATOM     19  C   UNL     1      48.103  50.980  17.150  1.00  0.00    +0.113 A 
BRANCH  17  20
ATOM     20  N   UNL     1      49.579  49.441  18.415  1.00  0.00    -0.331 N 
ATOM     21  C   UNL     1      49.005  48.228  18.099  1.00  0.00    +0.192 C 
ATOM     22  N   UNL     1      47.866  47.865  17.643  1.00  0.00    -0.272 NA
ATOM     23  H   UNL     1      50.538  49.343  18.764  1.00  0.00    +0.169 HD
BRANCH  22  24
ATOM     24  C   UNL     1      46.791  48.846  17.414  1.00  0.00    +0.182 CG0
ATOM     25  G   UNL     1      47.130  50.045  16.510  1.00  0.00    +0.000 G0
ENDBRANCH  22  24
ENDBRANCH  17  20
BRANCH  19  26
ATOM     26  C   UNL     1      47.132  50.047  16.512  1.00  0.00    +0.188 CG0
ATOM     27  G   UNL     1      46.796  48.843  17.410  1.00  0.00    +0.000 G0
BRANCH  26  28
ATOM     28  O   UNL     1      47.580  49.625  15.218  1.00  0.00    -0.385 OA
ATOM     29  H   UNL     1      47.924  48.725  15.356  1.00  0.00    +0.211 HD
ENDBRANCH  26  28
ENDBRANCH  19  26
ENDBRANCH  14  15
ENDBRANCH   1  14
TORSDOF 7
ENDMDL
MODEL 4
REMARK VINA RESULT:    -7.112      4.135      7.803
REMARK INTER + INTRA:         -11.399
REMARK INTER:                 -11.004
REMARK INTRA:                  -0.395
REMARK UNBOUND:                -0.337
REMARK SMILES COC(=O)c1c(F)cccc1CCCn1cnc2c1NC=NCC2O
REMARK SMILES IDX 13 1 12 2 11 3 5 4 6 5 8 6 10 7 9 8 7 9 3 10 4 11 2 12 1 13
REMARK SMILES IDX 14 14 15 15 16 16 19 17 17 18 18 19 20 20 21 21 22 22 23 24
REMARK SMILES IDX 24 26 25 28
REMARK H PARENT 20 23 25 29
REMARK Flexibility Score:   49.900
ROOT
ATOM      1  C   UNL     1      50.043  51.423  19.059  1.00  0.00    +0.027 C 
ENDROOT
BRANCH   1   2
ATOM      2  C   UNL     1      50.091  50.068  18.349  1.00  0.00    +0.038 C 
BRANCH   2   3
ATOM      3  C   UNL     1      48.728  49.460  18.100  1.00  0.00    -0.030 A 
ATOM      4  C   UNL     1      48.012  49.632  16.891  1.00  0.00    +0.098 A 
ATOM      5  C   UNL     1      46.726  49.093  16.769  1.00  0.00    +0.138 A 
ATOM      6  C   UNL     1      46.150  48.362  17.804  1.00  0.00    +0.040 A 
ATOM      7  C   UNL     1      48.132  48.715  19.136  1.00  0.00    +0.005 A 
ATOM      8  C   UNL     1      46.857  48.166  18.986  1.00  0.00    +0.003 A 
ATOM      9  F   UNL     1      45.994  49.291  15.662  1.00  0.00    -0.206 F 
BRANCH   4  10
ATOM     10  C   UNL     1      48.591  50.376  15.744  1.00  0.00    +0.341 C 
ATOM     11  O   UNL     1      48.674  51.594  15.680  1.00  0.00    -0.246 OA
BRANCH  10  12
ATOM     12  O   UNL     1      49.119  49.494  14.863  1.00  0.00    -0.465 OA
ATOM     13  C   UNL     1      50.510  49.666  14.584  1.00  0.00    +0.282 C 
ENDBRANCH  10  12
ENDBRANCH   4  10
ENDBRANCH   2   3
ENDBRANCH   1   2
BRANCH   1  14
ATOM     14  C   UNL     1      51.455  51.964  19.286  1.00  0.00    +0.125 C 
BRANCH  14  15
ATOM     15  N   UNL     1      51.528  52.826  20.449  1.00  0.00    -0.317 N 
ATOM     16  C   UNL     1      51.628  52.391  21.743  1.00  0.00    +0.201 A 
ATOM     17  C   UNL     1      51.469  54.195  20.474  1.00  0.00    +0.137 A 
ATOM     18  N   UNL     1      51.629  53.394  22.592  1.00  0.00    -0.237 NA
ATOM     19  C   UNL     1      51.501  54.525  21.812  1.00  0.00    +0.113 A 
BRANCH  17  20
ATOM     20  N   UNL     1      51.423  54.985  19.377  1.00  0.00    -0.331 N 
ATOM     21  C   UNL     1      51.380  56.364  19.385  1.00  0.00    +0.192 C 
ATOM     22  N   UNL     1      51.080  57.248  20.260  1.00  0.00    -0.272 NA
ATOM     23  H   UNL     1      51.718  54.607  18.471  1.00  0.00    +0.169 HD
BRANCH  22  24
ATOM     24  C   UNL     1      50.586  56.861  21.593  1.00  0.00    +0.182 CG0
ATOM     25  G   UNL     1      51.472  55.902  22.408  1.00  0.00    +0.000 G0
ENDBRANCH  22  24
ENDBRANCH  17  20
BRANCH  19  26
ATOM     26  C   UNL     1      51.470  55.892  22.402  1.00  0.00    +0.188 CG0
ATOM     27  G   UNL     1      50.589  56.862  21.594  1.00  0.00    +0.000 G0
BRANCH  26  28
ATOM     28  O   UNL     1      52.791  56.416  22.587  1.00  0.00    -0.385 OA
ATOM     29  H   UNL     1      52.700  57.374  22.443  1.00  0.00    +0.211 HD
ENDBRANCH  26  28
ENDBRANCH  19  26
ENDBRANCH  14  15
ENDBRANCH   1  14
TORSDOF 7
ENDMDL
MODEL 5
REMARK VINA RESULT:    -6.945      3.905      7.145
REMARK INTER + INTRA:         -11.139
REMARK INTER:                 -10.776
REMARK INTRA:                  -0.363
REMARK UNBOUND:                -0.337
REMARK SMILES COC(=O)c1c(F)cccc1CCCn1cnc2c1NC=NCC2O
REMARK SMILES IDX 13 1 12 2 11 3 5 4 6 5 8 6 10 7 9 8 7 9 3 10 4 11 2 12 1 13
REMARK SMILES IDX 14 14 15 15 16 16 19 17 17 18 18 19 20 20 21 21 22 22 23 24
REMARK SMILES IDX 24 26 25 28
REMARK H PARENT 20 23 25 29
REMARK Flexibility Score:   49.900
ROOT
ATOM      1  C   UNL     1      51.875  51.572  18.259  1.00  0.00    +0.027 C 
ENDROOT
BRANCH   1   2
ATOM      2  C   UNL     1      50.660  50.706  18.601  1.00  0.00    +0.038 C 
BRANCH   2   3
ATOM      3  C   UNL     1      49.357  51.231  18.040  1.00  0.00    -0.030 A 
ATOM      4  C   UNL     1      48.213  50.419  17.848  1.00  0.00    +0.098 A 
ATOM      5  C   UNL     1      47.068  50.967  17.257  1.00  0.00    +0.138 A 
ATOM      6  C   UNL     1      47.023  52.307  16.883  1.00  0.00    +0.040 A 
ATOM      7  C   UNL     1      49.292  52.585  17.659  1.00  0.00    +0.005 A 
ATOM      8  C   UNL     1      48.133  53.119  17.092  1.00  0.00    +0.003 A 
ATOM      9  F   UNL     1      45.990  50.212  17.002  1.00  0.00    -0.206 F 
BRANCH   4  10
ATOM     10  C   UNL     1      48.197  48.991  18.256  1.00  0.00    +0.341 C 
ATOM     11  O   UNL     1      47.513  48.537  19.161  1.00  0.00    -0.246 OA
BRANCH  10  12
ATOM     12  O   UNL     1      48.950  48.273  17.388  1.00  0.00    -0.465 OA
ATOM     13  C   UNL     1      48.242  47.721  16.276  1.00  0.00    +0.282 C 
ENDBRANCH  10  12
ENDBRANCH   4  10
ENDBRANCH   2   3
ENDBRANCH   1   2
BRANCH   1  14
ATOM     14  C   UNL     1      52.846  51.629  19.438  1.00  0.00    +0.125 C 
BRANCH  14  15
ATOM     15  N   UNL     1      52.360  52.484  20.504  1.00  0.00    -0.317 N 
ATOM     16  C   UNL     1      51.953  52.047  21.735  1.00  0.00    +0.201 A 
ATOM     17  C   UNL     1      52.181  53.842  20.464  1.00  0.00    +0.137 A 
ATOM     18  N   UNL     1      51.520  53.039  22.481  1.00  0.00    -0.237 NA
ATOM     19  C   UNL     1      51.631  54.161  21.687  1.00  0.00    +0.113 A 
BRANCH  17  20
ATOM     20  N   UNL     1      52.527  54.636  19.424  1.00  0.00    -0.331 N 
ATOM     21  C   UNL     1      52.368  56.004  19.375  1.00  0.00    +0.192 C 
ATOM     22  N   UNL     1      51.659  56.851  20.023  1.00  0.00    -0.272 NA
ATOM     23  H   UNL     1      53.201  54.293  18.732  1.00  0.00    +0.169 HD
BRANCH  22  24
ATOM     24  C   UNL     1      50.693  56.409  21.043  1.00  0.00    +0.182 CG0
ATOM     25  G   UNL     1      51.241  55.527  22.180  1.00  0.00    +0.000 G0
ENDBRANCH  22  24
ENDBRANCH  17  20
BRANCH  19  26
ATOM     26  C   UNL     1      51.244  55.514  22.174  1.00  0.00    +0.188 CG0
ATOM     27  G   UNL     1      50.705  56.414  21.047  1.00  0.00    +0.000 G0
BRANCH  26  28
ATOM     28  O   UNL     1      52.321  56.147  22.877  1.00  0.00    -0.385 OA
ATOM     29  H   UNL     1      51.910  56.518  23.678  1.00  0.00    +0.211 HD
ENDBRANCH  26  28
ENDBRANCH  19  26
ENDBRANCH  14  15
ENDBRANCH   1  14
TORSDOF 7
ENDMDL
