MODEL 1
REMARK VINA RESULT:    -7.809      0.000      0.000
REMARK INTER + INTRA:         -12.234
REMARK INTER:                 -12.146
REMARK INTRA:                  -0.088
REMARK UNBOUND:                -0.088
REMARK SMILES COC(=O)c1ccc(C)cc1CCCn1cnc2c1NC=NCC2O
REMARK SMILES IDX 13 1 12 2 11 3 5 4 6 5 7 6 10 7 8 8 9 9 3 10 4 11 2 12 1 13
REMARK SMILES IDX 14 14 15 15 16 16 19 17 17 18 18 19 20 20 21 21 22 22 23 24
REMARK SMILES IDX 24 26 25 28
REMARK H PARENT 20 23 25 29
REMARK Flexibility Score:   49.900
ROOT
ATOM      1  C   UNL     1      50.169  53.329  20.617  1.00  0.00    +0.027 C 
ENDROOT
BRANCH   1   2
ATOM      2  C   UNL     1      50.291  54.664  19.880  1.00  0.00    +0.038 C 
BRANCH   2   3
ATOM      3  C   UNL     1      49.770  55.928  20.529  1.00  0.00    -0.033 A 
ATOM      4  C   UNL     1      50.533  56.570  21.538  1.00  0.00    +0.063 A 
ATOM      5  C   UNL     1      50.049  57.746  22.136  1.00  0.00    +0.016 A 
ATOM      6  C   UNL     1      48.826  58.291  21.747  1.00  0.00    +0.004 A 
ATOM      7  C   UNL     1      48.540  56.497  20.154  1.00  0.00    +0.008 A 
ATOM      8  C   UNL     1      48.057  57.665  20.764  1.00  0.00    -0.051 A 
ATOM      9  C   UNL     1      46.757  58.270  20.318  1.00  0.00    +0.044 C 
BRANCH   4  10
ATOM     10  C   UNL     1      51.850  56.012  21.989  1.00  0.00    +0.338 C 
ATOM     11  O   UNL     1      52.004  55.285  22.959  1.00  0.00    -0.246 OA
BRANCH  10  12
ATOM     12  O   UNL     1      52.832  56.403  21.136  1.00  0.00    -0.465 OA
ATOM     13  C   UNL     1      53.494  57.610  21.521  1.00  0.00    +0.282 C 
ENDBRANCH  10  12
ENDBRANCH   4  10
ENDBRANCH   2   3
ENDBRANCH   1   2
BRANCH   1  14
ATOM     14  C   UNL     1      51.142  52.289  20.046  1.00  0.00    +0.125 C 
BRANCH  14  15
ATOM     15  N   UNL     1      50.498  51.087  19.555  1.00  0.00    -0.317 N 
ATOM     16  C   UNL     1      50.598  49.863  20.168  1.00  0.00    +0.201 A 
ATOM     17  C   UNL     1      49.762  50.911  18.408  1.00  0.00    +0.137 A 
ATOM     18  N   UNL     1      49.976  48.923  19.495  1.00  0.00    -0.237 NA
ATOM     19  C   UNL     1      49.455  49.567  18.393  1.00  0.00    +0.113 A 
BRANCH  17  20
ATOM     20  N   UNL     1      49.417  51.888  17.536  1.00  0.00    -0.331 N 
ATOM     21  C   UNL     1      48.630  51.720  16.415  1.00  0.00    +0.192 C 
ATOM     22  N   UNL     1      48.315  50.709  15.690  1.00  0.00    -0.272 NA
ATOM     23  H   UNL     1      49.508  52.864  17.806  1.00  0.00    +0.169 HD
BRANCH  22  24
ATOM     24  C   UNL     1      48.934  49.399  15.953  1.00  0.00    +0.182 CG0
ATOM     25  G   UNL     1      48.661  48.830  17.355  1.00  0.00    +0.000 G0
ENDBRANCH  22  24
ENDBRANCH  17  20
BRANCH  19  26
ATOM     26  C   UNL     1      48.668  48.834  17.358  1.00  0.00    +0.188 CG0
ATOM     27  G   UNL     1      48.933  49.400  15.954  1.00  0.00    +0.000 G0
BRANCH  26  28
ATOM     28  O   UNL     1      49.004  47.437  17.373  1.00  0.00    -0.385 OA
ATOM     29  H   UNL     1      49.740  47.375  18.016  1.00  0.00    +0.211 HD
ENDBRANCH  26  28
ENDBRANCH  19  26
ENDBRANCH  14  15
ENDBRANCH   1  14
TORSDOF 7
ENDMDL
MODEL 2
REMARK VINA RESULT:    -7.783      3.663      7.751
REMARK INTER + INTRA:         -12.193
REMARK INTER:                 -11.587
REMARK INTRA:                  -0.606
REMARK UNBOUND:                -0.088
REMARK SMILES COC(=O)c1ccc(C)cc1CCCn1cnc2c1NC=NCC2O
REMARK SMILES IDX 13 1 12 2 11 3 5 4 6 5 7 6 10 7 8 8 9 9 3 10 4 11 2 12 1 13
REMARK SMILES IDX 14 14 15 15 16 16 19 17 17 18 18 19 20 20 21 21 22 22 23 24
REMARK SMILES IDX 24 26 25 28
REMARK H PARENT 20 23 25 29
REMARK Flexibility Score:   49.900
ROOT
ATOM      1  C   UNL     1      48.211  53.495  17.721  1.00  0.00    +0.027 C 
ENDROOT
BRANCH   1   2
ATOM      2  C   UNL     1      48.357  52.234  16.866  1.00  0.00    +0.038 C 
BRANCH   2   3
ATOM      3  C   UNL     1      47.974  50.889  17.443  1.00  0.00    -0.033 A 
ATOM      4  C   UNL     1      48.922  50.147  18.193  1.00  0.00    +0.063 A 
ATOM      5  C   UNL     1      48.563  48.900  18.731  1.00  0.00    +0.016 A 
ATOM      6  C   UNL     1      47.281  48.384  18.538  1.00  0.00    +0.004 A 
ATOM      7  C   UNL     1      46.688  50.348  17.263  1.00  0.00    +0.008 A 
ATOM      8  C   UNL     1      46.340  49.097  17.794  1.00  0.00    -0.051 A 
ATOM      9  C   UNL     1      44.950  48.559  17.615  1.00  0.00    +0.044 C 
BRANCH   4  10
ATOM     10  C   UNL     1      50.312  50.664  18.416  1.00  0.00    +0.338 C 
ATOM     11  O   UNL     1      51.160  50.787  17.545  1.00  0.00    -0.246 OA
BRANCH  10  12
ATOM     12  O   UNL     1      50.470  51.010  19.720  1.00  0.00    -0.465 OA
ATOM     13  C   UNL     1      51.714  50.596  20.288  1.00  0.00    +0.282 C 
ENDBRANCH  10  12
ENDBRANCH   4  10
ENDBRANCH   2   3
ENDBRANCH   1   2
BRANCH   1  14
ATOM     14  C   UNL     1      49.553  54.225  17.865  1.00  0.00    +0.125 C 
BRANCH  14  15
ATOM     15  N   UNL     1      49.583  55.193  18.944  1.00  0.00    -0.317 N 
ATOM     16  C   UNL     1      48.960  56.416  18.891  1.00  0.00    +0.201 A 
ATOM     17  C   UNL     1      50.257  55.130  20.139  1.00  0.00    +0.137 A 
ATOM     18  N   UNL     1      49.188  57.132  19.967  1.00  0.00    -0.237 NA
ATOM     19  C   UNL     1      50.001  56.339  20.750  1.00  0.00    +0.113 A 
BRANCH  17  20
ATOM     20  N   UNL     1      50.976  54.071  20.583  1.00  0.00    -0.331 N 
ATOM     21  C   UNL     1      51.603  53.986  21.810  1.00  0.00    +0.192 C 
ATOM     22  N   UNL     1      52.004  54.851  22.668  1.00  0.00    -0.272 NA
ATOM     23  H   UNL     1      50.875  53.165  20.132  1.00  0.00    +0.169 HD
BRANCH  22  24
ATOM     24  C   UNL     1      51.915  56.288  22.355  1.00  0.00    +0.182 CG0
ATOM     25  G   UNL     1      50.491  56.799  22.086  1.00  0.00    +0.000 G0
ENDBRANCH  22  24
ENDBRANCH  17  20
BRANCH  19  26
ATOM     26  C   UNL     1      50.498  56.802  22.079  1.00  0.00    +0.188 CG0
ATOM     27  G   UNL     1      51.920  56.287  22.351  1.00  0.00    +0.000 G0
BRANCH  26  28
ATOM     28  O   UNL     1      50.497  58.237  22.140  1.00  0.00    -0.385 OA
ATOM     29  H   UNL     1      51.149  58.505  21.460  1.00  0.00    +0.211 HD
ENDBRANCH  26  28
ENDBRANCH  19  26
ENDBRANCH  14  15
ENDBRANCH   1  14
TORSDOF 7
ENDMDL
MODEL 3
REMARK VINA RESULT:    -7.586      3.371      7.530
REMARK INTER + INTRA:         -11.887
REMARK INTER:                 -11.420
REMARK INTRA:                  -0.467
REMARK UNBOUND:                -0.088
REMARK SMILES COC(=O)c1ccc(C)cc1CCCn1cnc2c1NC=NCC2O
REMARK SMILES IDX 13 1 12 2 11 3 5 4 6 5 7 6 10 7 8 8 9 9 3 10 4 11 2 12 1 13
REMARK SMILES IDX 14 14 15 15 16 16 19 17 17 18 18 19 20 20 21 21 22 22 23 24
REMARK SMILES IDX 24 26 25 28
REMARK H PARENT 20 23 25 29
REMARK Flexibility Score:   49.900
ROOT
ATOM      1  C   UNL     1      50.013  49.905  19.574  1.00  0.00    +0.027 C 
ENDROOT
BRANCH   1   2
ATOM      2  C   UNL     1      49.456  49.102  18.396  1.00  0.00    +0.038 C 
BRANCH   2   3
ATOM      3  C   UNL     1      47.965  49.085  18.140  1.00  0.00    -0.033 A 
ATOM      4  C   UNL     1      47.384  50.056  17.286  1.00  0.00    +0.063 A 
ATOM      5  C   UNL     1      46.000  50.035  17.046  1.00  0.00    +0.016 A 
ATOM      6  C   UNL     1      45.190  49.067  17.638  1.00  0.00    +0.004 A 
ATOM      7  C   UNL     1      47.127  48.119  18.726  1.00  0.00    +0.008 A 
ATOM      8  C   UNL     1      45.744  48.111  18.491  1.00  0.00    -0.051 A 
ATOM      9  C   UNL     1      44.879  47.046  19.101  1.00  0.00    +0.044 C 
BRANCH   4  10
ATOM     10  C   UNL     1      48.220  51.118  16.635  1.00  0.00    +0.338 C 
ATOM     11  O   UNL     1      48.873  50.964  15.614  1.00  0.00    -0.246 OA
BRANCH  10  12
ATOM     12  O   UNL     1      48.109  52.280  17.328  1.00  0.00    -0.465 OA
ATOM     13  C   UNL     1      47.879  53.429  16.510  1.00  0.00    +0.282 C 
ENDBRANCH  10  12
ENDBRANCH   4  10
ENDBRANCH   2   3
ENDBRANCH   1   2
BRANCH   1  14
ATOM     14  C   UNL     1      50.928  51.038  19.090  1.00  0.00    +0.125 C 
BRANCH  14  15
ATOM     15  N   UNL     1      51.291  51.985  20.126  1.00  0.00    -0.317 N 
ATOM     16  C   UNL     1      51.775  51.620  21.358  1.00  0.00    +0.201 A 
ATOM     17  C   UNL     1      51.168  53.353  20.124  1.00  0.00    +0.137 A 
ATOM     18  N   UNL     1      51.970  52.658  22.138  1.00  0.00    -0.237 NA
ATOM     19  C   UNL     1      51.589  53.743  21.377  1.00  0.00    +0.113 A 
BRANCH  17  20
ATOM     20  N   UNL     1      50.748  54.105  19.079  1.00  0.00    -0.331 N 
ATOM     21  C   UNL     1      50.678  55.483  19.060  1.00  0.00    +0.192 C 
ATOM     22  N   UNL     1      50.615  56.385  19.970  1.00  0.00    -0.272 NA
ATOM     23  H   UNL     1      50.704  53.699  18.147  1.00  0.00    +0.169 HD
BRANCH  22  24
ATOM     24  C   UNL     1      50.494  55.991  21.384  1.00  0.00    +0.182 CG0
ATOM     25  G   UNL     1      51.647  55.119  21.908  1.00  0.00    +0.000 G0
ENDBRANCH  22  24
ENDBRANCH  17  20
BRANCH  19  26
ATOM     26  C   UNL     1      51.655  55.135  21.914  1.00  0.00    +0.188 CG0
ATOM     27  G   UNL     1      50.482  55.985  21.401  1.00  0.00    +0.000 G0
BRANCH  26  28
ATOM     28  O   UNL     1      51.631  55.117  23.350  1.00  0.00    -0.385 OA
ATOM     29  H   UNL     1      50.796  55.574  23.580  1.00  0.00    +0.211 HD
ENDBRANCH  26  28
ENDBRANCH  19  26
ENDBRANCH  14  15
ENDBRANCH   1  14
TORSDOF 7
ENDMDL
MODEL 4
REMARK VINA RESULT:    -7.344      1.874      2.812
REMARK INTER + INTRA:         -11.511
REMARK INTER:                 -11.390
REMARK INTRA:                  -0.121
REMARK UNBOUND:                -0.088
REMARK SMILES COC(=O)c1ccc(C)cc1CCCn1cnc2c1NC=NCC2O
REMARK SMILES IDX 13 1 12 2 11 3 5 4 6 5 7 6 10 7 8 8 9 9 3 10 4 11 2 12 1 13
REMARK SMILES IDX 14 14 15 15 16 16 19 17 17 18 18 19 20 20 21 21 22 22 23 24
REMARK SMILES IDX 24 26 25 28
REMARK H PARENT 20 23 25 29
REMARK Flexibility Score:   49.900
ROOT
ATOM      1  C   UNL     1      48.663  53.842  17.618  1.00  0.00    +0.027 C 
ENDROOT
BRANCH   1   2
ATOM      2  C   UNL     1      49.132  53.791  19.074  1.00  0.00    +0.038 C 
BRANCH   2   3
ATOM      3  C   UNL     1      49.218  55.070  19.879  1.00  0.00    -0.033 A 
ATOM      4  C   UNL     1      50.379  55.343  20.647  1.00  0.00    +0.063 A 
ATOM      5  C   UNL     1      50.458  56.532  21.390  1.00  0.00    +0.016 A 
ATOM      6  C   UNL     1      49.408  57.450  21.379  1.00  0.00    +0.004 A 
ATOM      7  C   UNL     1      48.173  56.011  19.883  1.00  0.00    +0.008 A 
ATOM      8  C   UNL     1      48.255  57.191  20.637  1.00  0.00    -0.051 A 
ATOM      9  C   UNL     1      47.139  58.194  20.595  1.00  0.00    +0.044 C 
BRANCH   4  10
ATOM     10  C   UNL     1      51.526  54.378  20.691  1.00  0.00    +0.338 C 
ATOM     11  O   UNL     1      52.358  54.242  19.806  1.00  0.00    -0.246 OA
BRANCH  10  12
ATOM     12  O   UNL     1      51.523  53.712  21.875  1.00  0.00    -0.465 OA
ATOM     13  C   UNL     1      51.603  52.291  21.747  1.00  0.00    +0.282 C 
ENDBRANCH  10  12
ENDBRANCH   4  10
ENDBRANCH   2   3
ENDBRANCH   1   2
BRANCH   1  14
ATOM     14  C   UNL     1      47.612  52.760  17.336  1.00  0.00    +0.125 C 
BRANCH  14  15
ATOM     15  N   UNL     1      48.163  51.425  17.204  1.00  0.00    -0.317 N 
ATOM     16  C   UNL     1      49.482  51.167  16.926  1.00  0.00    +0.201 A 
ATOM     17  C   UNL     1      47.512  50.217  17.253  1.00  0.00    +0.137 A 
ATOM     18  N   UNL     1      49.717  49.882  16.797  1.00  0.00    -0.237 NA
ATOM     19  C   UNL     1      48.491  49.281  16.994  1.00  0.00    +0.113 A 
BRANCH  17  20
ATOM     20  N   UNL     1      46.198  50.040  17.530  1.00  0.00    -0.331 N 
ATOM     21  C   UNL     1      45.557  48.821  17.633  1.00  0.00    +0.192 C 
ATOM     22  N   UNL     1      45.813  47.641  17.201  1.00  0.00    -0.272 NA
ATOM     23  H   UNL     1      45.659  50.800  17.936  1.00  0.00    +0.169 HD
BRANCH  22  24
ATOM     24  C   UNL     1      46.967  47.420  16.314  1.00  0.00    +0.182 CG0
ATOM     25  G   UNL     1      48.327  47.803  16.921  1.00  0.00    +0.000 G0
ENDBRANCH  22  24
ENDBRANCH  17  20
BRANCH  19  26
ATOM     26  C   UNL     1      48.327  47.799  16.923  1.00  0.00    +0.188 CG0
ATOM     27  G   UNL     1      46.970  47.419  16.310  1.00  0.00    +0.000 G0
BRANCH  26  28
ATOM     28  O   UNL     1      49.379  47.218  16.136  1.00  0.00    -0.385 OA
ATOM     29  H   UNL     1      49.358  47.725  15.298  1.00  0.00    +0.211 HD
ENDBRANCH  26  28
ENDBRANCH  19  26
ENDBRANCH  14  15
ENDBRANCH   1  14
TORSDOF 7
ENDMDL
MODEL 5
REMARK VINA RESULT:    -7.246      2.016      3.187
REMARK INTER + INTRA:         -11.358
REMARK INTER:                 -10.516
REMARK INTRA:                  -0.842
REMARK UNBOUND:                -0.088
REMARK SMILES COC(=O)c1ccc(C)cc1CCCn1cnc2c1NC=NCC2O
REMARK SMILES IDX 13 1 12 2 11 3 5 4 6 5 7 6 10 7 8 8 9 9 3 10 4 11 2 12 1 13
REMARK SMILES IDX 14 14 15 15 16 16 19 17 17 18 18 19 20 20 21 21 22 22 23 24
REMARK SMILES IDX 24 26 25 28
REMARK H PARENT 20 23 25 29
REMARK Flexibility Score:   49.900
ROOT
ATOM      1  C   UNL     1      48.276  53.845  18.312  1.00  0.00    +0.027 C 
ENDROOT
BRANCH   1   2
ATOM      2  C   UNL     1      49.212  55.054  18.341  1.00  0.00    +0.038 C 
BRANCH   2   3
ATOM      3  C   UNL     1      49.038  56.112  19.409  1.00  0.00    -0.033 A 
ATOM      4  C   UNL     1      49.921  56.147  20.518  1.00  0.00    +0.063 A 
ATOM      5  C   UNL     1      49.760  57.133  21.506  1.00  0.00    +0.016 A 
ATOM      6  C   UNL     1      48.739  58.079  21.408  1.00  0.00    +0.004 A 
ATOM      7  C   UNL     1      48.017  57.076  19.332  1.00  0.00    +0.008 A 
ATOM      8  C   UNL     1      47.855  58.051  20.328  1.00  0.00    -0.051 A 
ATOM      9  C   UNL     1      46.779  59.090  20.202  1.00  0.00    +0.044 C 
BRANCH   4  10
ATOM     10  C   UNL     1      51.026  55.144  20.664  1.00  0.00    +0.338 C 
ATOM     11  O   UNL     1      52.197  55.349  20.382  1.00  0.00    -0.246 OA
BRANCH  10  12
ATOM     12  O   UNL     1      50.535  53.993  21.192  1.00  0.00    -0.465 OA
ATOM     13  C   UNL     1      51.336  53.442  22.239  1.00  0.00    +0.282 C 
ENDBRANCH  10  12
ENDBRANCH   4  10
ENDBRANCH   2   3
ENDBRANCH   1   2
BRANCH   1  14
ATOM     14  C   UNL     1      48.745  52.804  17.287  1.00  0.00    +0.125 C 
BRANCH  14  15
ATOM     15  N   UNL     1      49.257  51.583  17.879  1.00  0.00    -0.317 N 
ATOM     16  C   UNL     1      48.539  50.417  17.964  1.00  0.00    +0.201 A 
ATOM     17  C   UNL     1      50.460  51.369  18.505  1.00  0.00    +0.137 A 
ATOM     18  N   UNL     1      49.200  49.476  18.598  1.00  0.00    -0.237 NA
ATOM     19  C   UNL     1      50.399  50.063  18.943  1.00  0.00    +0.113 A 
BRANCH  17  20
ATOM     20  N   UNL     1      51.465  52.272  18.612  1.00  0.00    -0.331 N 
ATOM     21  C   UNL     1      52.695  52.037  19.193  1.00  0.00    +0.192 C 
ATOM     22  N   UNL     1      53.132  51.177  20.039  1.00  0.00    -0.272 NA
ATOM     23  H   UNL     1      51.460  53.107  18.032  1.00  0.00    +0.169 HD
BRANCH  22  24
ATOM     24  C   UNL     1      52.195  50.234  20.674  1.00  0.00    +0.182 CG0
ATOM     25  G   UNL     1      51.446  49.315  19.695  1.00  0.00    +0.000 G0
ENDBRANCH  22  24
ENDBRANCH  17  20
BRANCH  19  26
ATOM     26  C   UNL     1      51.448  49.314  19.695  1.00  0.00    +0.188 CG0
ATOM     27  G   UNL     1      52.190  50.232  20.680  1.00  0.00    +0.000 G0
BRANCH  26  28
ATOM     28  O   UNL     1      50.858  48.223  20.422  1.00  0.00    -0.385 OA
ATOM     29  H   UNL     1      51.573  47.918  21.016  1.00  0.00    +0.211 HD
ENDBRANCH  26  28
ENDBRANCH  19  26
ENDBRANCH  14  15
ENDBRANCH   1  14
TORSDOF 7
ENDMDL
