MODEL 1
REMARK VINA RESULT:    -8.054      0.000      0.000
REMARK INTER + INTRA:         -13.489
REMARK INTER:                 -12.997
REMARK INTRA:                  -0.492
REMARK UNBOUND:                -0.492
REMARK SMILES CNOC(=O)c1ccc(C)c(CCCn2cnc3c2NC=NCC3O)c1
REMARK SMILES IDX 12 1 11 2 6 3 7 4 26 5 8 6 9 7 10 8 4 9 5 10 3 11 2 12 1 13
REMARK SMILES IDX 13 15 14 16 15 17 16 18 19 19 17 20 18 21 20 22 21 23 22 24
REMARK SMILES IDX 23 26 24 28 25 30
REMARK H PARENT 2 14 20 25 25 31
REMARK Flexibility Score:   92.900
ROOT
ATOM      1  C   UNL     1      48.142  55.004  19.402  1.00  0.00    +0.037 C 
ENDROOT
BRANCH   1   2
ATOM      2  C   UNL     1      48.797  55.992  20.345  1.00  0.00    -0.044 A 
ATOM      3  C   UNL     1      50.671  56.477  21.848  1.00  0.00    +0.062 A 
ATOM      4  C   UNL     1      50.115  57.726  22.133  1.00  0.00    +0.016 A 
ATOM      5  C   UNL     1      50.010  55.620  20.958  1.00  0.00    +0.019 A 
ATOM      6  C   UNL     1      48.916  58.110  21.526  1.00  0.00    +0.004 A 
ATOM      7  C   UNL     1      48.247  57.257  20.631  1.00  0.00    -0.048 A 
ATOM      8  C   UNL     1      46.972  57.742  19.996  1.00  0.00    +0.044 C 
BRANCH   3   9
ATOM      9  C   UNL     1      51.944  56.008  22.457  1.00  0.00    +0.356 C 
ATOM     10  O   UNL     1      52.009  55.396  23.515  1.00  0.00    -0.244 OA
BRANCH   9  11
ATOM     11  O   UNL     1      53.013  56.339  21.666  1.00  0.00    -0.367 OA
BRANCH  11  12
ATOM     12  N   UNL     1      53.723  57.522  22.174  1.00  0.00    -0.156 NA
ATOM     13  C   UNL     1      54.618  57.914  21.094  1.00  0.00    +0.148 C 
ATOM     14  H   UNL     1      54.282  57.138  22.949  1.00  0.00    +0.168 HD
ENDBRANCH  11  12
ENDBRANCH   9  11
ENDBRANCH   3   9
ENDBRANCH   1   2
BRANCH   1  15
ATOM     15  C   UNL     1      48.813  54.926  18.027  1.00  0.00    +0.027 C 
BRANCH  15  16
ATOM     16  C   UNL     1      49.244  53.507  17.656  1.00  0.00    +0.125 C 
BRANCH  16  17
ATOM     17  N   UNL     1      50.387  53.065  18.433  1.00  0.00    -0.317 N 
ATOM     18  C   UNL     1      51.454  53.860  18.760  1.00  0.00    +0.201 A 
ATOM     19  C   UNL     1      50.614  51.828  18.979  1.00  0.00    +0.137 A 
ATOM     20  N   UNL     1      52.343  53.211  19.476  1.00  0.00    -0.237 NA
ATOM     21  C   UNL     1      51.840  51.934  19.600  1.00  0.00    +0.113 A 
BRANCH  19  22
ATOM     22  N   UNL     1      49.756  50.784  18.909  1.00  0.00    -0.331 N 
ATOM     23  C   UNL     1      49.936  49.560  19.516  1.00  0.00    +0.192 C 
ATOM     24  N   UNL     1      50.950  48.924  19.966  1.00  0.00    -0.272 NA
ATOM     25  H   UNL     1      48.813  50.938  18.571  1.00  0.00    +0.169 HD
BRANCH  24  26
ATOM     26  C   UNL     1      52.311  49.469  19.813  1.00  0.00    +0.182 CG0
ATOM     27  G   UNL     1      52.560  50.876  20.386  1.00  0.00    +0.000 G0
ENDBRANCH  24  26
ENDBRANCH  19  22
BRANCH  21  28
ATOM     28  C   UNL     1      52.561  50.878  20.366  1.00  0.00    +0.188 CG0
ATOM     29  G   UNL     1      52.321  49.468  19.796  1.00  0.00    +0.000 G0
BRANCH  28  30
ATOM     30  O   UNL     1      52.250  50.936  21.763  1.00  0.00    -0.385 OA
ATOM     31  H   UNL     1      51.371  50.525  21.840  1.00  0.00    +0.211 HD
ENDBRANCH  28  30
ENDBRANCH  21  28
ENDBRANCH  16  17
ENDBRANCH  15  16
ENDBRANCH   1  15
TORSDOF 8
ENDMDL
MODEL 2
REMARK VINA RESULT:    -7.623      2.784      6.407
REMARK INTER + INTRA:         -12.795
REMARK INTER:                 -12.040
REMARK INTRA:                  -0.755
REMARK UNBOUND:                -0.492
REMARK SMILES CNOC(=O)c1ccc(C)c(CCCn2cnc3c2NC=NCC3O)c1
REMARK SMILES IDX 12 1 11 2 6 3 7 4 26 5 8 6 9 7 10 8 4 9 5 10 3 11 2 12 1 13
REMARK SMILES IDX 13 15 14 16 15 17 16 18 19 19 17 20 18 21 20 22 21 23 22 24
REMARK SMILES IDX 23 26 24 28 25 30
REMARK H PARENT 2 14 20 25 25 31
REMARK Flexibility Score:   92.900
ROOT
ATOM      1  C   UNL     1      48.389  52.526  17.084  1.00  0.00    +0.037 C 
ENDROOT
BRANCH   1   2
ATOM      2  C   UNL     1      48.723  51.235  17.801  1.00  0.00    -0.044 A 
ATOM      3  C   UNL     1      50.275  50.030  19.266  1.00  0.00    +0.062 A 
ATOM      4  C   UNL     1      49.473  48.891  19.175  1.00  0.00    +0.016 A 
ATOM      5  C   UNL     1      49.896  51.192  18.580  1.00  0.00    +0.019 A 
ATOM      6  C   UNL     1      48.303  48.922  18.412  1.00  0.00    +0.004 A 
ATOM      7  C   UNL     1      47.915  50.083  17.721  1.00  0.00    -0.048 A 
ATOM      8  C   UNL     1      46.632  50.054  16.934  1.00  0.00    +0.044 C 
BRANCH   3   9
ATOM      9  C   UNL     1      51.531  50.066  20.063  1.00  0.00    +0.356 C 
ATOM     10  O   UNL     1      52.645  49.881  19.590  1.00  0.00    -0.244 OA
BRANCH   9  11
ATOM     11  O   UNL     1      51.265  50.349  21.377  1.00  0.00    -0.367 OA
BRANCH  11  12
ATOM     12  N   UNL     1      52.221  51.320  21.931  1.00  0.00    -0.156 NA
ATOM     13  C   UNL     1      51.676  52.624  21.578  1.00  0.00    +0.148 C 
ATOM     14  H   UNL     1      53.069  51.149  21.373  1.00  0.00    +0.168 HD
ENDBRANCH  11  12
ENDBRANCH   9  11
ENDBRANCH   3   9
ENDBRANCH   1   2
BRANCH   1  15
ATOM     15  C   UNL     1      48.181  53.718  18.025  1.00  0.00    +0.027 C 
BRANCH  15  16
ATOM     16  C   UNL     1      49.289  54.764  17.913  1.00  0.00    +0.125 C 
BRANCH  16  17
ATOM     17  N   UNL     1      49.423  55.547  19.127  1.00  0.00    -0.317 N 
ATOM     18  C   UNL     1      48.368  55.994  19.879  1.00  0.00    +0.201 A 
ATOM     19  C   UNL     1      50.574  55.967  19.742  1.00  0.00    +0.137 A 
ATOM     20  N   UNL     1      48.773  56.671  20.929  1.00  0.00    -0.237 NA
ATOM     21  C   UNL     1      50.148  56.680  20.843  1.00  0.00    +0.113 A 
BRANCH  19  22
ATOM     22  N   UNL     1      51.826  55.678  19.318  1.00  0.00    -0.331 N 
ATOM     23  C   UNL     1      52.990  56.028  19.968  1.00  0.00    +0.192 C 
ATOM     24  N   UNL     1      53.299  56.911  20.838  1.00  0.00    -0.272 NA
ATOM     25  H   UNL     1      51.956  54.985  18.590  1.00  0.00    +0.169 HD
BRANCH  24  26
ATOM     26  C   UNL     1      52.304  57.897  21.300  1.00  0.00    +0.182 CG0
ATOM     27  G   UNL     1      50.988  57.335  21.866  1.00  0.00    +0.000 G0
ENDBRANCH  24  26
ENDBRANCH  19  22
BRANCH  21  28
ATOM     28  C   UNL     1      50.994  57.350  21.871  1.00  0.00    +0.188 CG0
ATOM     29  G   UNL     1      52.300  57.915  21.283  1.00  0.00    +0.000 G0
BRANCH  28  30
ATOM     30  O   UNL     1      51.254  56.484  22.982  1.00  0.00    -0.385 OA
ATOM     31  H   UNL     1      51.172  57.053  23.767  1.00  0.00    +0.211 HD
ENDBRANCH  28  30
ENDBRANCH  21  28
ENDBRANCH  16  17
ENDBRANCH  15  16
ENDBRANCH   1  15
TORSDOF 8
ENDMDL
MODEL 3
REMARK VINA RESULT:    -7.584      1.206      2.109
REMARK INTER + INTRA:         -12.732
REMARK INTER:                 -12.544
REMARK INTRA:                  -0.188
REMARK UNBOUND:                -0.492
REMARK SMILES CNOC(=O)c1ccc(C)c(CCCn2cnc3c2NC=NCC3O)c1
REMARK SMILES IDX 12 1 11 2 6 3 7 4 26 5 8 6 9 7 10 8 4 9 5 10 3 11 2 12 1 13
REMARK SMILES IDX 13 15 14 16 15 17 16 18 19 19 17 20 18 21 20 22 21 23 22 24
REMARK SMILES IDX 23 26 24 28 25 30
REMARK H PARENT 2 14 20 25 25 31
REMARK Flexibility Score:   92.900
ROOT
ATOM      1  C   UNL     1      47.991  55.135  19.258  1.00  0.00    +0.037 C 
ENDROOT
BRANCH   1   2
ATOM      2  C   UNL     1      48.718  56.016  20.253  1.00  0.00    -0.044 A 
ATOM      3  C   UNL     1      50.641  56.289  21.747  1.00  0.00    +0.062 A 
ATOM      4  C   UNL     1      50.163  57.544  22.129  1.00  0.00    +0.016 A 
ATOM      5  C   UNL     1      49.917  55.534  20.814  1.00  0.00    +0.019 A 
ATOM      6  C   UNL     1      48.979  58.036  21.575  1.00  0.00    +0.004 A 
ATOM      7  C   UNL     1      48.247  57.287  20.637  1.00  0.00    -0.048 A 
ATOM      8  C   UNL     1      46.991  57.886  20.064  1.00  0.00    +0.044 C 
BRANCH   3   9
ATOM      9  C   UNL     1      51.895  55.706  22.296  1.00  0.00    +0.356 C 
ATOM     10  O   UNL     1      52.004  54.543  22.661  1.00  0.00    -0.244 OA
BRANCH   9  11
ATOM     11  O   UNL     1      52.897  56.641  22.316  1.00  0.00    -0.367 OA
BRANCH  11  12
ATOM     12  N   UNL     1      53.535  56.786  20.999  1.00  0.00    -0.156 NA
ATOM     13  C   UNL     1      53.987  58.171  20.953  1.00  0.00    +0.148 C 
ATOM     14  H   UNL     1      52.746  56.670  20.348  1.00  0.00    +0.168 HD
ENDBRANCH  11  12
ENDBRANCH   9  11
ENDBRANCH   3   9
ENDBRANCH   1   2
BRANCH   1  15
ATOM     15  C   UNL     1      48.776  54.886  17.966  1.00  0.00    +0.027 C 
BRANCH  15  16
ATOM     16  C   UNL     1      48.339  53.614  17.241  1.00  0.00    +0.125 C 
BRANCH  16  17
ATOM     17  N   UNL     1      49.077  52.450  17.691  1.00  0.00    -0.317 N 
ATOM     18  C   UNL     1      48.606  51.164  17.632  1.00  0.00    +0.201 A 
ATOM     19  C   UNL     1      50.338  52.401  18.230  1.00  0.00    +0.137 A 
ATOM     20  N   UNL     1      49.482  50.303  18.098  1.00  0.00    -0.237 NA
ATOM     21  C   UNL     1      50.559  51.066  18.495  1.00  0.00    +0.113 A 
BRANCH  19  22
ATOM     22  N   UNL     1      51.145  53.472  18.404  1.00  0.00    -0.331 N 
ATOM     23  C   UNL     1      52.436  53.431  18.884  1.00  0.00    +0.192 C 
ATOM     24  N   UNL     1      53.107  52.592  19.576  1.00  0.00    -0.272 NA
ATOM     25  H   UNL     1      50.897  54.356  17.973  1.00  0.00    +0.169 HD
BRANCH  24  26
ATOM     26  C   UNL     1      52.471  51.374  20.110  1.00  0.00    +0.182 CG0
ATOM     27  G   UNL     1      51.788  50.447  19.089  1.00  0.00    +0.000 G0
ENDBRANCH  24  26
ENDBRANCH  19  22
BRANCH  21  28
ATOM     28  C   UNL     1      51.785  50.450  19.078  1.00  0.00    +0.188 CG0
ATOM     29  G   UNL     1      52.467  51.360  20.115  1.00  0.00    +0.000 G0
BRANCH  28  30
ATOM     30  O   UNL     1      52.704  50.043  18.057  1.00  0.00    -0.385 OA
ATOM     31  H   UNL     1      53.073  49.201  18.375  1.00  0.00    +0.211 HD
ENDBRANCH  28  30
ENDBRANCH  21  28
ENDBRANCH  16  17
ENDBRANCH  15  16
ENDBRANCH   1  15
TORSDOF 8
ENDMDL
MODEL 4
REMARK VINA RESULT:    -7.416      2.067      2.529
REMARK INTER + INTRA:         -12.460
REMARK INTER:                 -11.978
REMARK INTRA:                  -0.482
REMARK UNBOUND:                -0.492
REMARK SMILES CNOC(=O)c1ccc(C)c(CCCn2cnc3c2NC=NCC3O)c1
REMARK SMILES IDX 12 1 11 2 6 3 7 4 26 5 8 6 9 7 10 8 4 9 5 10 3 11 2 12 1 13
REMARK SMILES IDX 13 15 14 16 15 17 16 18 19 19 17 20 18 21 20 22 21 23 22 24
REMARK SMILES IDX 23 26 24 28 25 30
REMARK H PARENT 2 14 20 25 25 31
REMARK Flexibility Score:   92.900
ROOT
ATOM      1  C   UNL     1      48.030  55.146  19.283  1.00  0.00    +0.037 C 
ENDROOT
BRANCH   1   2
ATOM      2  C   UNL     1      48.725  56.066  20.265  1.00  0.00    -0.044 A 
ATOM      3  C   UNL     1      50.641  56.433  21.749  1.00  0.00    +0.062 A 
ATOM      4  C   UNL     1      50.115  57.672  22.117  1.00  0.00    +0.016 A 
ATOM      5  C   UNL     1      49.944  55.639  20.827  1.00  0.00    +0.019 A 
ATOM      6  C   UNL     1      48.910  58.111  21.562  1.00  0.00    +0.004 A 
ATOM      7  C   UNL     1      48.205  57.322  20.636  1.00  0.00    -0.048 A 
ATOM      8  C   UNL     1      46.924  57.865  20.061  1.00  0.00    +0.044 C 
BRANCH   3   9
ATOM      9  C   UNL     1      51.918  55.907  22.300  1.00  0.00    +0.356 C 
ATOM     10  O   UNL     1      52.004  55.290  23.354  1.00  0.00    -0.244 OA
BRANCH   9  11
ATOM     11  O   UNL     1      52.964  56.194  21.462  1.00  0.00    -0.367 OA
BRANCH  11  12
ATOM     12  N   UNL     1      53.862  57.208  22.036  1.00  0.00    -0.156 NA
ATOM     13  C   UNL     1      53.873  58.291  21.062  1.00  0.00    +0.148 C 
ATOM     14  H   UNL     1      54.777  56.736  22.023  1.00  0.00    +0.168 HD
ENDBRANCH  11  12
ENDBRANCH   9  11
ENDBRANCH   3   9
ENDBRANCH   1   2
BRANCH   1  15
ATOM     15  C   UNL     1      48.656  55.151  17.884  1.00  0.00    +0.027 C 
BRANCH  15  16
ATOM     16  C   UNL     1      48.254  53.936  17.049  1.00  0.00    +0.125 C 
BRANCH  16  17
ATOM     17  N   UNL     1      48.904  52.723  17.508  1.00  0.00    -0.317 N 
ATOM     18  C   UNL     1      50.179  52.670  18.010  1.00  0.00    +0.201 A 
ATOM     19  C   UNL     1      48.397  51.449  17.540  1.00  0.00    +0.137 A 
ATOM     20  N   UNL     1      50.514  51.448  18.357  1.00  0.00    -0.237 NA
ATOM     21  C   UNL     1      49.417  50.673  18.047  1.00  0.00    +0.113 A 
BRANCH  19  22
ATOM     22  N   UNL     1      47.142  51.108  17.167  1.00  0.00    -0.331 N 
ATOM     23  C   UNL     1      46.595  49.846  17.261  1.00  0.00    +0.192 C 
ATOM     24  N   UNL     1      47.077  48.667  17.353  1.00  0.00    -0.272 NA
ATOM     25  H   UNL     1      46.460  51.838  16.994  1.00  0.00    +0.169 HD
BRANCH  24  26
ATOM     26  C   UNL     1      48.533  48.439  17.291  1.00  0.00    +0.182 CG0
ATOM     27  G   UNL     1      49.395  49.204  18.312  1.00  0.00    +0.000 G0
ENDBRANCH  24  26
ENDBRANCH  19  22
BRANCH  21  28
ATOM     28  C   UNL     1      49.396  49.205  18.306  1.00  0.00    +0.188 CG0
ATOM     29  G   UNL     1      48.528  48.440  17.292  1.00  0.00    +0.000 G0
BRANCH  28  30
ATOM     30  O   UNL     1      49.003  48.915  19.653  1.00  0.00    -0.385 OA
ATOM     31  H   UNL     1      49.602  49.443  20.208  1.00  0.00    +0.211 HD
ENDBRANCH  28  30
ENDBRANCH  21  28
ENDBRANCH  16  17
ENDBRANCH  15  16
ENDBRANCH   1  15
TORSDOF 8
ENDMDL
MODEL 5
REMARK VINA RESULT:    -7.371      4.179      8.143
REMARK INTER + INTRA:         -12.388
REMARK INTER:                 -12.267
REMARK INTRA:                  -0.121
REMARK UNBOUND:                -0.492
REMARK SMILES CNOC(=O)c1ccc(C)c(CCCn2cnc3c2NC=NCC3O)c1
REMARK SMILES IDX 12 1 11 2 6 3 7 4 26 5 8 6 9 7 10 8 4 9 5 10 3 11 2 12 1 13
REMARK SMILES IDX 13 15 14 16 15 17 16 18 19 19 17 20 18 21 20 22 21 23 22 24
REMARK SMILES IDX 23 26 24 28 25 30
REMARK H PARENT 2 14 20 25 25 31
REMARK Flexibility Score:   92.900
ROOT
ATOM      1  C   UNL     1      48.264  52.736  17.086  1.00  0.00    +0.037 C 
ENDROOT
BRANCH   1   2
ATOM      2  C   UNL     1      48.113  51.284  17.489  1.00  0.00    -0.044 A 
ATOM      3  C   UNL     1      46.730  49.261  17.435  1.00  0.00    +0.062 A 
ATOM      4  C   UNL     1      47.694  48.585  18.186  1.00  0.00    +0.016 A 
ATOM      5  C   UNL     1      46.945  50.603  17.093  1.00  0.00    +0.019 A 
ATOM      6  C   UNL     1      48.860  49.247  18.579  1.00  0.00    +0.004 A 
ATOM      7  C   UNL     1      49.084  50.592  18.240  1.00  0.00    -0.048 A 
ATOM      8  C   UNL     1      50.371  51.237  18.678  1.00  0.00    +0.044 C 
BRANCH   3   9
ATOM      9  C   UNL     1      45.469  48.616  16.982  1.00  0.00    +0.356 C 
ATOM     10  O   UNL     1      45.279  48.216  15.840  1.00  0.00    -0.244 OA
BRANCH   9  11
ATOM     11  O   UNL     1      44.572  48.522  18.014  1.00  0.00    -0.367 OA
BRANCH  11  12
ATOM     12  N   UNL     1      44.320  47.123  18.392  1.00  0.00    -0.156 NA
ATOM     13  C   UNL     1      44.703  47.041  19.795  1.00  0.00    +0.148 C 
ATOM     14  H   UNL     1      45.008  46.606  17.827  1.00  0.00    +0.168 HD
ENDBRANCH  11  12
ENDBRANCH   9  11
ENDBRANCH   3   9
ENDBRANCH   1   2
BRANCH   1  15
ATOM     15  C   UNL     1      48.307  53.704  18.274  1.00  0.00    +0.027 C 
BRANCH  15  16
ATOM     16  C   UNL     1      48.752  55.111  17.877  1.00  0.00    +0.125 C 
BRANCH  16  17
ATOM     17  N   UNL     1      49.054  55.932  19.034  1.00  0.00    -0.317 N 
ATOM     18  C   UNL     1      48.123  56.654  19.735  1.00  0.00    +0.201 A 
ATOM     19  C   UNL     1      50.269  56.134  19.637  1.00  0.00    +0.137 A 
ATOM     20  N   UNL     1      48.666  57.301  20.741  1.00  0.00    -0.237 NA
ATOM     21  C   UNL     1      50.009  57.002  20.676  1.00  0.00    +0.113 A 
BRANCH  19  22
ATOM     22  N   UNL     1      51.427  55.548  19.256  1.00  0.00    -0.331 N 
ATOM     23  C   UNL     1      52.638  55.677  19.900  1.00  0.00    +0.192 C 
ATOM     24  N   UNL     1      53.133  56.530  20.713  1.00  0.00    -0.272 NA
ATOM     25  H   UNL     1      51.402  54.794  18.579  1.00  0.00    +0.169 HD
BRANCH  24  26
ATOM     26  C   UNL     1      52.379  57.740  21.089  1.00  0.00    +0.182 CG0
ATOM     27  G   UNL     1      50.970  57.524  21.669  1.00  0.00    +0.000 G0
ENDBRANCH  24  26
ENDBRANCH  19  22
BRANCH  21  28
ATOM     28  C   UNL     1      50.981  57.543  21.668  1.00  0.00    +0.188 CG0
ATOM     29  G   UNL     1      52.391  57.721  21.076  1.00  0.00    +0.000 G0
BRANCH  28  30
ATOM     30  O   UNL     1      51.013  56.749  22.860  1.00  0.00    -0.385 OA
ATOM     31  H   UNL     1      51.099  55.832  22.547  1.00  0.00    +0.211 HD
ENDBRANCH  28  30
ENDBRANCH  21  28
ENDBRANCH  16  17
ENDBRANCH  15  16
ENDBRANCH   1  15
TORSDOF 8
ENDMDL
