MODEL 1
REMARK VINA RESULT:    -5.841      0.000      0.000
REMARK INTER + INTRA:          -8.247
REMARK INTER:                  -8.572
REMARK INTRA:                   0.325
REMARK UNBOUND:                 0.325
REMARK SMILES OC[C@@H]1OC(n2cnc3c2N=CCC[C@H]3O)[C@@H](O)[C@H]1O
REMARK SMILES IDX 3 1 4 2 5 3 17 4 19 5 2 6 1 7 20 9 6 11 7 12 10 13 8 14 9 15
REMARK SMILES IDX 11 16 12 17 13 18 15 20 16 21 14 23 18 25
REMARK H PARENT 1 8 20 10 16 22 18 26
REMARK Flexibility Score:   16.900
ROOT
ATOM      1  C   UNL     1      51.133  50.442  19.185  1.00  0.00    +0.178 C 
ATOM      2  O   UNL     1      50.199  49.336  19.141  1.00  0.00    -0.347 OA
ATOM      3  C   UNL     1      49.575  49.359  17.838  1.00  0.00    +0.253 C 
ATOM      4  C   UNL     1      49.645  50.815  17.369  1.00  0.00    +0.195 C 
ATOM      5  C   UNL     1      51.037  51.186  17.849  1.00  0.00    +0.179 C 
ENDROOT
BRANCH   1   6
ATOM      6  C   UNL     1      52.538  49.905  19.463  1.00  0.00    +0.191 C 
BRANCH   6   7
ATOM      7  O   UNL     1      52.473  48.594  20.028  1.00  0.00    -0.394 OA
ATOM      8  H   UNL     1      53.319  48.158  19.821  1.00  0.00    +0.210 HD
ENDBRANCH   6   7
ENDBRANCH   1   6
BRANCH   5   9
ATOM      9  O   UNL     1      51.178  52.597  18.011  1.00  0.00    -0.387 OA
ATOM     10  H   UNL     1      51.573  52.710  18.902  1.00  0.00    +0.211 HD
ENDBRANCH   5   9
BRANCH   3  11
ATOM     11  N   UNL     1      48.229  48.824  17.914  1.00  0.00    -0.286 N 
ATOM     12  C   UNL     1      47.523  48.550  19.048  1.00  0.00    +0.203 A 
ATOM     13  C   UNL     1      47.439  48.520  16.821  1.00  0.00    +0.160 A 
ATOM     14  N   UNL     1      46.330  48.080  18.772  1.00  0.00    -0.237 NA
ATOM     15  C   UNL     1      46.269  48.043  17.393  1.00  0.00    +0.114 A 
BRANCH  13  16
ATOM     16  N   UNL     1      47.925  48.710  15.573  1.00  0.00    -0.241 NA
ATOM     17  C   UNL     1      47.188  48.532  14.518  1.00  0.00    +0.086 C 
BRANCH  17  18
ATOM     18  C   UNL     1      45.731  48.166  14.407  1.00  0.00    +0.051 CG0
ATOM     19  G   UNL     1      45.283  47.028  15.308  1.00  0.00    +0.000 G0
ENDBRANCH  17  18
ENDBRANCH  13  16
BRANCH  15  20
ATOM     20  C   UNL     1      45.040  47.514  16.741  1.00  0.00    +0.167 C 
BRANCH  20  21
ATOM     21  O   UNL     1      44.504  46.418  17.490  1.00  0.00    -0.387 OA
ATOM     22  H   UNL     1      43.715  46.792  17.934  1.00  0.00    +0.211 HD
ENDBRANCH  20  21
BRANCH  20  23
ATOM     23  C   UNL     1      45.283  47.034  15.316  1.00  0.00    +0.044 CG0
ATOM     24  G   UNL     1      45.734  48.164  14.408  1.00  0.00    +0.000 G0
ENDBRANCH  20  23
ENDBRANCH  15  20
ENDBRANCH   3  11
BRANCH   4  25
ATOM     25  O   UNL     1      48.713  51.693  18.040  1.00  0.00    -0.386 OA
ATOM     26  H   UNL     1      48.536  52.435  17.432  1.00  0.00    +0.211 HD
ENDBRANCH   4  25
TORSDOF 6
ENDMDL
MODEL 2
REMARK VINA RESULT:    -5.758      4.789      6.584
REMARK INTER + INTRA:          -8.125
REMARK INTER:                  -8.289
REMARK INTRA:                   0.165
REMARK UNBOUND:                 0.325
REMARK SMILES OC[C@@H]1OC(n2cnc3c2N=CCC[C@H]3O)[C@@H](O)[C@H]1O
REMARK SMILES IDX 3 1 4 2 5 3 17 4 19 5 2 6 1 7 20 9 6 11 7 12 10 13 8 14 9 15
REMARK SMILES IDX 11 16 12 17 13 18 15 20 16 21 14 23 18 25
REMARK H PARENT 1 8 20 10 16 22 18 26
REMARK Flexibility Score:   16.900
ROOT
ATOM      1  C   UNL     1      52.834  56.529  21.017  1.00  0.00    +0.178 C 
ATOM      2  O   UNL     1      52.825  55.645  19.869  1.00  0.00    -0.347 OA
ATOM      3  C   UNL     1      51.463  55.196  19.691  1.00  0.00    +0.253 C 
ATOM      4  C   UNL     1      50.813  55.278  21.075  1.00  0.00    +0.195 C 
ATOM      5  C   UNL     1      51.407  56.583  21.574  1.00  0.00    +0.179 C 
ENDROOT
BRANCH   1   6
ATOM      6  C   UNL     1      53.355  57.903  20.592  1.00  0.00    +0.191 C 
BRANCH   6   7
ATOM      7  O   UNL     1      53.460  58.773  21.721  1.00  0.00    -0.394 OA
ATOM      8  H   UNL     1      53.415  59.683  21.377  1.00  0.00    +0.210 HD
ENDBRANCH   6   7
ENDBRANCH   1   6
BRANCH   5   9
ATOM      9  O   UNL     1      51.392  56.655  22.999  1.00  0.00    -0.387 OA
ATOM     10  H   UNL     1      51.717  57.557  23.209  1.00  0.00    +0.211 HD
ENDBRANCH   5   9
BRANCH   3  11
ATOM     11  N   UNL     1      51.444  53.869  19.104  1.00  0.00    -0.286 N 
ATOM     12  C   UNL     1      52.451  52.950  19.131  1.00  0.00    +0.203 A 
ATOM     13  C   UNL     1      50.369  53.322  18.428  1.00  0.00    +0.160 A 
ATOM     14  N   UNL     1      52.112  51.845  18.511  1.00  0.00    -0.237 NA
ATOM     15  C   UNL     1      50.826  52.067  18.058  1.00  0.00    +0.114 A 
BRANCH  13  16
ATOM     16  N   UNL     1      49.240  54.051  18.270  1.00  0.00    -0.241 NA
ATOM     17  C   UNL     1      48.170  53.546  17.733  1.00  0.00    +0.086 C 
BRANCH  17  18
ATOM     18  C   UNL     1      47.901  52.145  17.247  1.00  0.00    +0.051 CG0
ATOM     19  G   UNL     1      49.013  51.527  16.418  1.00  0.00    +0.000 G0
ENDBRANCH  17  18
ENDBRANCH  13  16
BRANCH  15  20
ATOM     20  C   UNL     1      50.149  51.004  17.267  1.00  0.00    +0.167 C 
BRANCH  20  21
ATOM     21  O   UNL     1      51.081  50.350  16.399  1.00  0.00    -0.387 OA
ATOM     22  H   UNL     1      50.808  49.410  16.413  1.00  0.00    +0.211 HD
ENDBRANCH  20  21
BRANCH  20  23
ATOM     23  C   UNL     1      49.006  51.536  16.413  1.00  0.00    +0.044 CG0
ATOM     24  G   UNL     1      47.905  52.148  17.260  1.00  0.00    +0.000 G0
ENDBRANCH  20  23
ENDBRANCH  15  20
ENDBRANCH   3  11
BRANCH   4  25
ATOM     25  O   UNL     1      51.237  54.239  21.985  1.00  0.00    -0.386 OA
ATOM     26  H   UNL     1      51.581  54.684  22.783  1.00  0.00    +0.211 HD
ENDBRANCH   4  25
TORSDOF 6
ENDMDL
MODEL 3
REMARK VINA RESULT:    -5.709      2.240      3.556
REMARK INTER + INTRA:          -8.054
REMARK INTER:                  -8.184
REMARK INTRA:                   0.130
REMARK UNBOUND:                 0.325
REMARK SMILES OC[C@@H]1OC(n2cnc3c2N=CCC[C@H]3O)[C@@H](O)[C@H]1O
REMARK SMILES IDX 3 1 4 2 5 3 17 4 19 5 2 6 1 7 20 9 6 11 7 12 10 13 8 14 9 15
REMARK SMILES IDX 11 16 12 17 13 18 15 20 16 21 14 23 18 25
REMARK H PARENT 1 8 20 10 16 22 18 26
REMARK Flexibility Score:   16.900
ROOT
ATOM      1  C   UNL     1      51.434  52.415  20.393  1.00  0.00    +0.178 C 
ATOM      2  O   UNL     1      50.525  52.258  19.277  1.00  0.00    -0.347 OA
ATOM      3  C   UNL     1      49.977  50.923  19.359  1.00  0.00    +0.253 C 
ATOM      4  C   UNL     1      51.022  50.091  20.107  1.00  0.00    +0.195 C 
ATOM      5  C   UNL     1      51.456  51.090  21.165  1.00  0.00    +0.179 C 
ENDROOT
BRANCH   1   6
ATOM      6  C   UNL     1      50.976  53.593  21.255  1.00  0.00    +0.191 C 
BRANCH   6   7
ATOM      7  O   UNL     1      51.269  53.352  22.633  1.00  0.00    -0.394 OA
ATOM      8  H   UNL     1      50.414  53.295  23.095  1.00  0.00    +0.210 HD
ENDBRANCH   6   7
ENDBRANCH   1   6
BRANCH   5   9
ATOM      9  O   UNL     1      52.756  50.788  21.670  1.00  0.00    -0.387 OA
ATOM     10  H   UNL     1      52.950  49.884  21.341  1.00  0.00    +0.211 HD
ENDBRANCH   5   9
BRANCH   3  11
ATOM     11  N   UNL     1      49.661  50.426  18.034  1.00  0.00    -0.286 N 
ATOM     12  C   UNL     1      50.308  50.729  16.873  1.00  0.00    +0.203 A 
ATOM     13  C   UNL     1      48.640  49.538  17.749  1.00  0.00    +0.160 A 
ATOM     14  N   UNL     1      49.775  50.108  15.847  1.00  0.00    -0.237 NA
ATOM     15  C   UNL     1      48.730  49.375  16.375  1.00  0.00    +0.114 A 
BRANCH  13  16
ATOM     16  N   UNL     1      47.850  49.087  18.749  1.00  0.00    -0.241 NA
ATOM     17  C   UNL     1      46.938  48.183  18.546  1.00  0.00    +0.086 C 
BRANCH  17  18
ATOM     18  C   UNL     1      46.591  47.426  17.291  1.00  0.00    +0.051 CG0
ATOM     19  G   UNL     1      46.493  48.274  16.035  1.00  0.00    +0.000 G0
ENDBRANCH  17  18
ENDBRANCH  13  16
BRANCH  15  20
ATOM     20  C   UNL     1      47.880  48.571  15.456  1.00  0.00    +0.167 C 
BRANCH  20  21
ATOM     21  O   UNL     1      47.697  49.254  14.211  1.00  0.00    -0.387 OA
ATOM     22  H   UNL     1      48.100  48.657  13.546  1.00  0.00    +0.211 HD
ENDBRANCH  20  21
BRANCH  20  23
ATOM     23  C   UNL     1      46.503  48.269  16.031  1.00  0.00    +0.044 CG0
ATOM     24  G   UNL     1      46.589  47.426  17.292  1.00  0.00    +0.000 G0
ENDBRANCH  20  23
ENDBRANCH  15  20
ENDBRANCH   3  11
BRANCH   4  25
ATOM     25  O   UNL     1      52.189  49.768  19.319  1.00  0.00    -0.386 OA
ATOM     26  H   UNL     1      51.868  49.423  18.465  1.00  0.00    +0.211 HD
ENDBRANCH   4  25
TORSDOF 6
ENDMDL
MODEL 4
REMARK VINA RESULT:    -5.614      6.152      8.832
REMARK INTER + INTRA:          -7.913
REMARK INTER:                  -8.883
REMARK INTRA:                   0.970
REMARK UNBOUND:                 0.325
REMARK SMILES OC[C@@H]1OC(n2cnc3c2N=CCC[C@H]3O)[C@@H](O)[C@H]1O
REMARK SMILES IDX 3 1 4 2 5 3 17 4 19 5 2 6 1 7 20 9 6 11 7 12 10 13 8 14 9 15
REMARK SMILES IDX 11 16 12 17 13 18 15 20 16 21 14 23 18 25
REMARK H PARENT 1 8 20 10 16 22 18 26
REMARK Flexibility Score:   16.900
ROOT
ATOM      1  C   UNL     1      50.805  50.333  19.174  1.00  0.00    +0.178 C 
ATOM      2  O   UNL     1      50.509  51.671  19.643  1.00  0.00    -0.347 OA
ATOM      3  C   UNL     1      51.774  52.340  19.846  1.00  0.00    +0.253 C 
ATOM      4  C   UNL     1      52.791  51.230  20.126  1.00  0.00    +0.195 C 
ATOM      5  C   UNL     1      52.330  50.184  19.126  1.00  0.00    +0.179 C 
ENDROOT
BRANCH   1   6
ATOM      6  C   UNL     1      50.147  50.120  17.810  1.00  0.00    +0.191 C 
BRANCH   6   7
ATOM      7  O   UNL     1      51.041  50.490  16.758  1.00  0.00    -0.394 OA
ATOM      8  H   UNL     1      50.491  50.846  16.037  1.00  0.00    +0.210 HD
ENDBRANCH   6   7
ENDBRANCH   1   6
BRANCH   5   9
ATOM      9  O   UNL     1      52.751  48.874  19.506  1.00  0.00    -0.387 OA
ATOM     10  H   UNL     1      53.712  48.852  19.308  1.00  0.00    +0.211 HD
ENDBRANCH   5   9
BRANCH   3  11
ATOM     11  N   UNL     1      51.661  53.322  20.907  1.00  0.00    -0.286 N 
ATOM     12  C   UNL     1      51.288  53.089  22.198  1.00  0.00    +0.203 A 
ATOM     13  C   UNL     1      51.935  54.670  20.766  1.00  0.00    +0.160 A 
ATOM     14  N   UNL     1      51.291  54.193  22.908  1.00  0.00    -0.237 NA
ATOM     15  C   UNL     1      51.678  55.184  22.027  1.00  0.00    +0.114 A 
BRANCH  13  16
ATOM     16  N   UNL     1      52.327  55.148  19.563  1.00  0.00    -0.241 NA
ATOM     17  C   UNL     1      52.380  56.423  19.318  1.00  0.00    +0.086 C 
BRANCH  17  18
ATOM     18  C   UNL     1      52.109  57.594  20.227  1.00  0.00    +0.051 CG0
ATOM     19  G   UNL     1      52.635  57.444  21.644  1.00  0.00    +0.000 G0
ENDBRANCH  17  18
ENDBRANCH  13  16
BRANCH  15  20
ATOM     20  C   UNL     1      51.747  56.589  22.513  1.00  0.00    +0.167 C 
BRANCH  20  21
ATOM     21  O   UNL     1      50.441  57.174  22.551  1.00  0.00    -0.387 OA
ATOM     22  H   UNL     1      49.851  56.472  22.205  1.00  0.00    +0.211 HD
ENDBRANCH  20  21
BRANCH  20  23
ATOM     23  C   UNL     1      52.631  57.475  21.645  1.00  0.00    +0.044 CG0
ATOM     24  G   UNL     1      52.096  57.594  20.229  1.00  0.00    +0.000 G0
ENDBRANCH  20  23
ENDBRANCH  15  20
ENDBRANCH   3  11
BRANCH   4  25
ATOM     25  O   UNL     1      52.674  50.645  21.442  1.00  0.00    -0.386 OA
ATOM     26  H   UNL     1      53.398  49.996  21.529  1.00  0.00    +0.211 HD
ENDBRANCH   4  25
TORSDOF 6
ENDMDL
MODEL 5
REMARK VINA RESULT:    -5.457      5.655      7.798
REMARK INTER + INTRA:          -7.684
REMARK INTER:                  -8.314
REMARK INTRA:                   0.630
REMARK UNBOUND:                 0.325
REMARK SMILES OC[C@@H]1OC(n2cnc3c2N=CCC[C@H]3O)[C@@H](O)[C@H]1O
REMARK SMILES IDX 3 1 4 2 5 3 17 4 19 5 2 6 1 7 20 9 6 11 7 12 10 13 8 14 9 15
REMARK SMILES IDX 11 16 12 17 13 18 15 20 16 21 14 23 18 25
REMARK H PARENT 1 8 20 10 16 22 18 26
REMARK Flexibility Score:   16.900
ROOT
ATOM      1  C   UNL     1      50.340  57.190  20.976  1.00  0.00    +0.178 C 
ATOM      2  O   UNL     1      50.211  55.956  20.228  1.00  0.00    -0.347 OA
ATOM      3  C   UNL     1      50.978  54.953  20.930  1.00  0.00    +0.253 C 
ATOM      4  C   UNL     1      52.062  55.717  21.695  1.00  0.00    +0.195 C 
ATOM      5  C   UNL     1      51.260  56.916  22.170  1.00  0.00    +0.179 C 
ENDROOT
BRANCH   1   6
ATOM      6  C   UNL     1      48.950  57.670  21.399  1.00  0.00    +0.191 C 
BRANCH   6   7
ATOM      7  O   UNL     1      49.049  58.630  22.454  1.00  0.00    -0.394 OA
ATOM      8  H   UNL     1      49.181  58.127  23.278  1.00  0.00    +0.210 HD
ENDBRANCH   6   7
ENDBRANCH   1   6
BRANCH   5   9
ATOM      9  O   UNL     1      52.105  58.029  22.461  1.00  0.00    -0.387 OA
ATOM     10  H   UNL     1      52.867  57.647  22.947  1.00  0.00    +0.211 HD
ENDBRANCH   5   9
BRANCH   3  11
ATOM     11  N   UNL     1      51.493  53.969  19.996  1.00  0.00    -0.286 N 
ATOM     12  C   UNL     1      52.013  54.211  18.759  1.00  0.00    +0.203 A 
ATOM     13  C   UNL     1      51.547  52.608  20.236  1.00  0.00    +0.160 A 
ATOM     14  N   UNL     1      52.396  53.103  18.171  1.00  0.00    -0.237 NA
ATOM     15  C   UNL     1      52.099  52.098  19.071  1.00  0.00    +0.114 A 
BRANCH  13  16
ATOM     16  N   UNL     1      51.084  52.119  21.409  1.00  0.00    -0.241 NA
ATOM     17  C   UNL     1      50.869  50.849  21.582  1.00  0.00    +0.086 C 
BRANCH  17  18
ATOM     18  C   UNL     1      51.109  49.691  20.648  1.00  0.00    +0.051 CG0
ATOM     19  G   UNL     1      52.419  49.745  19.881  1.00  0.00    +0.000 G0
ENDBRANCH  17  18
ENDBRANCH  13  16
BRANCH  15  20
ATOM     20  C   UNL     1      52.378  50.687  18.690  1.00  0.00    +0.167 C 
BRANCH  20  21
ATOM     21  O   UNL     1      51.379  50.202  17.786  1.00  0.00    -0.387 OA
ATOM     22  H   UNL     1      51.744  50.392  16.897  1.00  0.00    +0.211 HD
ENDBRANCH  20  21
BRANCH  20  23
ATOM     23  C   UNL     1      52.424  49.746  19.887  1.00  0.00    +0.044 CG0
ATOM     24  G   UNL     1      51.099  49.711  20.629  1.00  0.00    +0.000 G0
ENDBRANCH  20  23
ENDBRANCH  15  20
ENDBRANCH   3  11
BRANCH   4  25
ATOM     25  O   UNL     1      53.128  56.219  20.859  1.00  0.00    -0.386 OA
ATOM     26  H   UNL     1      52.922  57.153  20.668  1.00  0.00    +0.211 HD
ENDBRANCH   4  25
TORSDOF 6
ENDMDL
