MODEL 1
REMARK VINA RESULT:    -7.008      0.000      0.000
REMARK INTER + INTRA:         -10.846
REMARK INTER:                 -10.286
REMARK INTRA:                  -0.561
REMARK UNBOUND:                -0.561
REMARK SMILES CCCCOC[C@@H]([C@@H](C)O)n1cnc2c(N)ncnc21
REMARK SMILES IDX 5 1 4 2 3 3 2 4 1 5 6 6 7 7 8 8 9 9 10 10 11 12 12 13 20 14
REMARK SMILES IDX 13 15 19 16 14 17 18 18 15 19 17 20 16 21
REMARK H PARENT 10 11 16 22 16 23
ROOT
ATOM      1  O   UNL     1      49.802  56.947  21.526  1.00  0.00    -0.379 OA
ENDROOT
BRANCH   1   2
ATOM      2  C   UNL     1      48.798  57.964  21.564  1.00  0.00    +0.160 C 
BRANCH   2   3
ATOM      3  C   UNL     1      47.845  57.730  20.399  1.00  0.00    +0.028 C 
BRANCH   3   4
ATOM      4  C   UNL     1      47.459  59.039  19.714  1.00  0.00    -0.001 C 
ATOM      5  C   UNL     1      47.458  58.896  18.202  1.00  0.00    +0.004 C 
ENDBRANCH   3   4
ENDBRANCH   2   3
ENDBRANCH   1   2
BRANCH   1   6
ATOM      6  C   UNL     1      50.602  57.035  20.342  1.00  0.00    +0.188 C 
BRANCH   6   7
ATOM      7  C   UNL     1      52.012  56.465  20.586  1.00  0.00    +0.144 C 
BRANCH   7   8
ATOM      8  C   UNL     1      52.918  57.319  21.505  1.00  0.00    +0.136 C 
ATOM      9  C   UNL     1      54.123  57.884  20.760  1.00  0.00    +0.040 C 
BRANCH   8  10
ATOM     10  O   UNL     1      52.230  58.418  22.107  1.00  0.00    -0.391 OA
ATOM     11  H   UNL     1      51.859  58.965  21.382  1.00  0.00    +0.211 HD
ENDBRANCH   8  10
ENDBRANCH   7   8
BRANCH   7  12
ATOM     12  N   UNL     1      51.937  55.076  21.042  1.00  0.00    -0.307 N 
ATOM     13  C   UNL     1      51.656  54.633  22.308  1.00  0.00    +0.202 A 
ATOM     14  C   UNL     1      52.102  53.972  20.248  1.00  0.00    +0.165 A 
ATOM     15  N   UNL     1      51.625  53.317  22.375  1.00  0.00    -0.231 NA
ATOM     16  N   UNL     1      52.393  53.936  18.937  1.00  0.00    -0.217 NA
ATOM     17  C   UNL     1      51.898  52.893  21.091  1.00  0.00    +0.150 A 
ATOM     18  C   UNL     1      52.488  52.662  18.504  1.00  0.00    +0.226 A 
ATOM     19  C   UNL     1      52.010  51.615  20.518  1.00  0.00    +0.155 A 
ATOM     20  N   UNL     1      52.324  51.521  19.206  1.00  0.00    -0.217 NA
BRANCH  19  21
ATOM     21  N   UNL     1      51.832  50.440  21.238  1.00  0.00    -0.382 N 
ATOM     22  H   UNL     1      51.603  50.603  22.214  1.00  0.00    +0.158 HD
ATOM     23  H   UNL     1      52.546  49.756  21.031  1.00  0.00    +0.158 HD
ENDBRANCH  19  21
ENDBRANCH   7  12
ENDBRANCH   6   7
ENDBRANCH   1   6
TORSDOF 9
ENDMDL
MODEL 2
REMARK VINA RESULT:    -6.726      1.484      2.027
REMARK INTER + INTRA:         -10.432
REMARK INTER:                  -9.723
REMARK INTRA:                  -0.709
REMARK UNBOUND:                -0.561
REMARK SMILES CCCCOC[C@@H]([C@@H](C)O)n1cnc2c(N)ncnc21
REMARK SMILES IDX 5 1 4 2 3 3 2 4 1 5 6 6 7 7 8 8 9 9 10 10 11 12 12 13 20 14
REMARK SMILES IDX 13 15 19 16 14 17 18 18 15 19 17 20 16 21
REMARK H PARENT 10 11 16 22 16 23
ROOT
ATOM      1  O   UNL     1      49.647  55.665  19.153  1.00  0.00    -0.379 OA
ENDROOT
BRANCH   1   2
ATOM      2  C   UNL     1      49.328  57.050  19.309  1.00  0.00    +0.160 C 
BRANCH   2   3
ATOM      3  C   UNL     1      47.828  57.166  19.545  1.00  0.00    +0.028 C 
BRANCH   3   4
ATOM      4  C   UNL     1      47.516  57.857  20.870  1.00  0.00    -0.001 C 
ATOM      5  C   UNL     1      48.786  58.204  21.629  1.00  0.00    +0.004 C 
ENDBRANCH   3   4
ENDBRANCH   2   3
ENDBRANCH   1   2
BRANCH   1   6
ATOM      6  C   UNL     1      49.970  55.050  20.405  1.00  0.00    +0.188 C 
BRANCH   6   7
ATOM      7  C   UNL     1      51.491  54.846  20.541  1.00  0.00    +0.144 C 
BRANCH   7   8
ATOM      8  C   UNL     1      52.178  55.713  21.623  1.00  0.00    +0.136 C 
ATOM      9  C   UNL     1      52.635  57.061  21.075  1.00  0.00    +0.040 C 
BRANCH   8  10
ATOM     10  O   UNL     1      51.341  55.968  22.753  1.00  0.00    -0.391 OA
ATOM     11  H   UNL     1      51.928  56.138  23.521  1.00  0.00    +0.211 HD
ENDBRANCH   8  10
ENDBRANCH   7   8
BRANCH   7  12
ATOM     12  N   UNL     1      51.811  53.428  20.701  1.00  0.00    -0.307 N 
ATOM     13  C   UNL     1      51.826  52.708  21.868  1.00  0.00    +0.202 A 
ATOM     14  C   UNL     1      52.115  52.564  19.683  1.00  0.00    +0.165 A 
ATOM     15  N   UNL     1      52.116  51.440  21.662  1.00  0.00    -0.231 NA
ATOM     16  N   UNL     1      52.216  52.839  18.372  1.00  0.00    -0.217 NA
ATOM     17  C   UNL     1      52.294  51.336  20.298  1.00  0.00    +0.150 A 
ATOM     18  C   UNL     1      52.544  51.732  17.675  1.00  0.00    +0.226 A 
ATOM     19  C   UNL     1      52.620  50.254  19.463  1.00  0.00    +0.155 A 
ATOM     20  N   UNL     1      52.756  50.480  18.136  1.00  0.00    -0.217 NA
BRANCH  19  21
ATOM     21  N   UNL     1      52.828  48.964  19.936  1.00  0.00    -0.382 N 
ATOM     22  H   UNL     1      53.377  48.393  19.302  1.00  0.00    +0.158 HD
ATOM     23  H   UNL     1      51.985  48.561  20.321  1.00  0.00    +0.158 HD
ENDBRANCH  19  21
ENDBRANCH   7  12
ENDBRANCH   6   7
ENDBRANCH   1   6
TORSDOF 9
ENDMDL
MODEL 3
REMARK VINA RESULT:    -5.721      3.820      6.291
REMARK INTER + INTRA:          -8.957
REMARK INTER:                  -8.214
REMARK INTRA:                  -0.742
REMARK UNBOUND:                -0.561
REMARK SMILES CCCCOC[C@@H]([C@@H](C)O)n1cnc2c(N)ncnc21
REMARK SMILES IDX 5 1 4 2 3 3 2 4 1 5 6 6 7 7 8 8 9 9 10 10 11 12 12 13 20 14
REMARK SMILES IDX 13 15 19 16 14 17 18 18 15 19 17 20 16 21
REMARK H PARENT 10 11 16 22 16 23
ROOT
ATOM      1  O   UNL     1      50.193  49.918  18.504  1.00  0.00    -0.379 OA
ENDROOT
BRANCH   1   2
ATOM      2  C   UNL     1      49.230  48.862  18.554  1.00  0.00    +0.160 C 
BRANCH   2   3
ATOM      3  C   UNL     1      48.332  48.983  17.330  1.00  0.00    +0.028 C 
BRANCH   3   4
ATOM      4  C   UNL     1      47.112  49.856  17.609  1.00  0.00    -0.001 C 
ATOM      5  C   UNL     1      47.285  51.254  17.038  1.00  0.00    +0.004 C 
ENDBRANCH   3   4
ENDBRANCH   2   3
ENDBRANCH   1   2
BRANCH   1   6
ATOM      6  C   UNL     1      50.128  50.751  19.667  1.00  0.00    +0.188 C 
BRANCH   6   7
ATOM      7  C   UNL     1      51.179  51.876  19.597  1.00  0.00    +0.144 C 
BRANCH   7   8
ATOM      8  C   UNL     1      52.101  51.839  18.354  1.00  0.00    +0.136 C 
ATOM      9  C   UNL     1      53.150  52.946  18.384  1.00  0.00    +0.040 C 
BRANCH   8  10
ATOM     10  O   UNL     1      52.790  50.596  18.203  1.00  0.00    -0.391 OA
ATOM     11  H   UNL     1      53.496  50.566  18.885  1.00  0.00    +0.211 HD
ENDBRANCH   8  10
ENDBRANCH   7   8
BRANCH   7  12
ATOM     12  N   UNL     1      50.548  53.185  19.763  1.00  0.00    -0.307 N 
ATOM     13  C   UNL     1      49.510  53.704  19.032  1.00  0.00    +0.202 A 
ATOM     14  C   UNL     1      50.876  54.107  20.721  1.00  0.00    +0.165 A 
ATOM     15  N   UNL     1      49.150  54.895  19.464  1.00  0.00    -0.231 NA
ATOM     16  N   UNL     1      51.837  54.018  21.655  1.00  0.00    -0.217 NA
ATOM     17  C   UNL     1      49.993  55.156  20.524  1.00  0.00    +0.150 A 
ATOM     18  C   UNL     1      51.868  55.131  22.416  1.00  0.00    +0.226 A 
ATOM     19  C   UNL     1      50.116  56.254  21.392  1.00  0.00    +0.155 A 
ATOM     20  N   UNL     1      51.083  56.226  22.337  1.00  0.00    -0.217 NA
BRANCH  19  21
ATOM     21  N   UNL     1      49.301  57.378  21.316  1.00  0.00    -0.382 N 
ATOM     22  H   UNL     1      48.342  57.157  21.068  1.00  0.00    +0.158 HD
ATOM     23  H   UNL     1      49.750  58.139  20.825  1.00  0.00    +0.158 HD
ENDBRANCH  19  21
ENDBRANCH   7  12
ENDBRANCH   6   7
ENDBRANCH   1   6
TORSDOF 9
ENDMDL
MODEL 4
REMARK VINA RESULT:    -5.476      2.171      3.112
REMARK INTER + INTRA:          -8.597
REMARK INTER:                  -8.129
REMARK INTRA:                  -0.469
REMARK UNBOUND:                -0.561
REMARK SMILES CCCCOC[C@@H]([C@@H](C)O)n1cnc2c(N)ncnc21
REMARK SMILES IDX 5 1 4 2 3 3 2 4 1 5 6 6 7 7 8 8 9 9 10 10 11 12 12 13 20 14
REMARK SMILES IDX 13 15 19 16 14 17 18 18 15 19 17 20 16 21
REMARK H PARENT 10 11 16 22 16 23
ROOT
ATOM      1  O   UNL     1      48.491  58.193  18.510  1.00  0.00    -0.379 OA
ENDROOT
BRANCH   1   2
ATOM      2  C   UNL     1      47.525  58.931  19.264  1.00  0.00    +0.160 C 
BRANCH   2   3
ATOM      3  C   UNL     1      46.853  59.924  18.325  1.00  0.00    +0.028 C 
BRANCH   3   4
ATOM      4  C   UNL     1      45.933  60.880  19.080  1.00  0.00    -0.001 C 
ATOM      5  C   UNL     1      46.702  62.065  19.641  1.00  0.00    +0.004 C 
ENDBRANCH   3   4
ENDBRANCH   2   3
ENDBRANCH   1   2
BRANCH   1   6
ATOM      6  C   UNL     1      48.341  56.781  18.695  1.00  0.00    +0.188 C 
BRANCH   6   7
ATOM      7  C   UNL     1      49.675  56.137  19.118  1.00  0.00    +0.144 C 
BRANCH   7   8
ATOM      8  C   UNL     1      50.069  56.352  20.600  1.00  0.00    +0.136 C 
ATOM      9  C   UNL     1      51.255  57.299  20.747  1.00  0.00    +0.040 C 
BRANCH   8  10
ATOM     10  O   UNL     1      49.001  56.870  21.395  1.00  0.00    -0.391 OA
ATOM     11  H   UNL     1      49.403  57.302  22.180  1.00  0.00    +0.211 HD
ENDBRANCH   8  10
ENDBRANCH   7   8
BRANCH   7  12
ATOM     12  N   UNL     1      49.706  54.721  18.751  1.00  0.00    -0.307 N 
ATOM     13  C   UNL     1      48.642  53.933  18.396  1.00  0.00    +0.202 A 
ATOM     14  C   UNL     1      50.834  53.950  18.665  1.00  0.00    +0.165 A 
ATOM     15  N   UNL     1      49.017  52.709  18.083  1.00  0.00    -0.231 NA
ATOM     16  N   UNL     1      52.102  54.311  18.926  1.00  0.00    -0.217 NA
ATOM     17  C   UNL     1      50.387  52.709  18.243  1.00  0.00    +0.150 A 
ATOM     18  C   UNL     1      52.943  53.273  18.739  1.00  0.00    +0.226 A 
ATOM     19  C   UNL     1      51.362  51.712  18.070  1.00  0.00    +0.155 A 
ATOM     20  N   UNL     1      52.652  52.016  18.340  1.00  0.00    -0.217 NA
BRANCH  19  21
ATOM     21  N   UNL     1      51.064  50.421  17.651  1.00  0.00    -0.382 N 
ATOM     22  H   UNL     1      50.332  50.390  16.948  1.00  0.00    +0.158 HD
ATOM     23  H   UNL     1      50.998  49.776  18.426  1.00  0.00    +0.158 HD
ENDBRANCH  19  21
ENDBRANCH   7  12
ENDBRANCH   6   7
ENDBRANCH   1   6
TORSDOF 9
ENDMDL
MODEL 5
REMARK VINA RESULT:    -5.323      8.335     11.818
REMARK INTER + INTRA:          -8.374
REMARK INTER:                  -7.919
REMARK INTRA:                  -0.455
REMARK UNBOUND:                -0.561
REMARK SMILES CCCCOC[C@@H]([C@@H](C)O)n1cnc2c(N)ncnc21
REMARK SMILES IDX 5 1 4 2 3 3 2 4 1 5 6 6 7 7 8 8 9 9 10 10 11 12 12 13 20 14
REMARK SMILES IDX 13 15 19 16 14 17 18 18 15 19 17 20 16 21
REMARK H PARENT 10 11 16 22 16 23
ROOT
ATOM      1  O   UNL     1      47.170  61.499  19.234  1.00  0.00    -0.379 OA
ENDROOT
BRANCH   1   2
ATOM      2  C   UNL     1      46.573  60.205  19.352  1.00  0.00    +0.160 C 
BRANCH   2   3
ATOM      3  C   UNL     1      47.692  59.179  19.477  1.00  0.00    +0.028 C 
BRANCH   3   4
ATOM      4  C   UNL     1      47.416  58.175  20.593  1.00  0.00    -0.001 C 
ATOM      5  C   UNL     1      48.632  57.310  20.878  1.00  0.00    +0.004 C 
ENDBRANCH   3   4
ENDBRANCH   2   3
ENDBRANCH   1   2
BRANCH   1   6
ATOM      6  C   UNL     1      46.313  62.527  19.744  1.00  0.00    +0.188 C 
BRANCH   6   7
ATOM      7  C   UNL     1      45.507  63.184  18.608  1.00  0.00    +0.144 C 
BRANCH   7   8
ATOM      8  C   UNL     1      45.901  62.741  17.178  1.00  0.00    +0.136 C 
ATOM      9  C   UNL     1      44.951  63.296  16.122  1.00  0.00    +0.040 C 
BRANCH   8  10
ATOM     10  O   UNL     1      47.226  63.131  16.814  1.00  0.00    -0.391 OA
ATOM     11  H   UNL     1      47.514  63.822  17.450  1.00  0.00    +0.211 HD
ENDBRANCH   8  10
ENDBRANCH   7   8
BRANCH   7  12
ATOM     12  N   UNL     1      44.070  63.039  18.842  1.00  0.00    -0.307 N 
ATOM     13  C   UNL     1      43.390  61.886  19.136  1.00  0.00    +0.202 A 
ATOM     14  C   UNL     1      43.160  64.063  18.841  1.00  0.00    +0.165 A 
ATOM     15  N   UNL     1      42.105  62.105  19.329  1.00  0.00    -0.231 NA
ATOM     16  N   UNL     1      43.384  65.365  18.599  1.00  0.00    -0.217 NA
ATOM     17  C   UNL     1      41.950  63.465  19.153  1.00  0.00    +0.150 A 
ATOM     18  C   UNL     1      42.238  66.070  18.678  1.00  0.00    +0.226 A 
ATOM     19  C   UNL     1      40.829  64.308  19.220  1.00  0.00    +0.155 A 
ATOM     20  N   UNL     1      40.995  65.626  18.962  1.00  0.00    -0.217 NA
BRANCH  19  21
ATOM     21  N   UNL     1      39.551  63.852  19.521  1.00  0.00    -0.382 N 
ATOM     22  H   UNL     1      39.329  63.917  20.509  1.00  0.00    +0.158 HD
ATOM     23  H   UNL     1      39.336  62.986  19.047  1.00  0.00    +0.158 HD
ENDBRANCH  19  21
ENDBRANCH   7  12
ENDBRANCH   6   7
ENDBRANCH   1   6
TORSDOF 9
ENDMDL
