MODEL 1
REMARK VINA RESULT:    -8.489      0.000      0.000
REMARK INTER + INTRA:         -12.156
REMARK INTER:                 -11.467
REMARK INTRA:                  -0.690
REMARK UNBOUND:                -0.690
REMARK SMILES Cc1cccc(CC[C@H]([C@H](C)O)n2cnc3c(N)ncnc32)c1
REMARK SMILES IDX 9 1 10 2 11 3 12 4 8 6 7 7 6 8 5 9 23 10 4 11 2 12 3 13 1 14
REMARK SMILES IDX 13 15 14 16 22 17 15 18 21 19 16 20 20 21 17 22 19 23 18 24
REMARK H PARENT 12 5 18 25 18 26
ROOT
ATOM      1  C   UNL     1      51.316  54.894  20.803  1.00  0.00    +0.119 C 
ENDROOT
BRANCH   1   2
ATOM      2  C   UNL     1      52.418  55.690  20.057  1.00  0.00    +0.134 C 
ATOM      3  C   UNL     1      52.787  56.991  20.769  1.00  0.00    +0.040 C 
BRANCH   2   4
ATOM      4  O   UNL     1      51.987  56.022  18.737  1.00  0.00    -0.391 OA
ATOM      5  H   UNL     1      51.050  56.284  18.783  1.00  0.00    +0.211 HD
ENDBRANCH   2   4
ENDBRANCH   1   2
BRANCH   1   6
ATOM      6  C   UNL     1      49.906  55.079  20.194  1.00  0.00    +0.033 C 
BRANCH   6   7
ATOM      7  C   UNL     1      49.143  56.269  20.787  1.00  0.00    +0.038 C 
BRANCH   7   8
ATOM      8  C   UNL     1      48.539  57.125  19.701  1.00  0.00    -0.048 A 
ATOM      9  C   UNL     1      48.462  56.649  18.386  1.00  0.00    +0.004 A 
ATOM     10  C   UNL     1      48.020  58.394  19.999  1.00  0.00    +0.007 A 
ATOM     11  C   UNL     1      47.891  57.434  17.385  1.00  0.00    +0.001 A 
ATOM     12  C   UNL     1      47.431  59.182  19.001  1.00  0.00    -0.051 A 
ATOM     13  C   UNL     1      47.382  58.697  17.689  1.00  0.00    +0.003 A 
ATOM     14  C   UNL     1      46.912  60.552  19.325  1.00  0.00    +0.044 C 
ENDBRANCH   7   8
ENDBRANCH   6   7
ENDBRANCH   1   6
BRANCH   1  15
ATOM     15  N   UNL     1      51.655  53.473  20.866  1.00  0.00    -0.309 N 
ATOM     16  C   UNL     1      51.661  52.682  21.988  1.00  0.00    +0.202 A 
ATOM     17  C   UNL     1      52.015  52.685  19.807  1.00  0.00    +0.165 A 
ATOM     18  N   UNL     1      51.992  51.439  21.713  1.00  0.00    -0.231 NA
ATOM     19  N   UNL     1      52.126  53.039  18.516  1.00  0.00    -0.217 NA
ATOM     20  C   UNL     1      52.230  51.431  20.352  1.00  0.00    +0.150 A 
ATOM     21  C   UNL     1      52.493  51.984  17.759  1.00  0.00    +0.226 A 
ATOM     22  C   UNL     1      52.618  50.414  19.464  1.00  0.00    +0.155 A 
ATOM     23  N   UNL     1      52.732  50.713  18.149  1.00  0.00    -0.217 NA
BRANCH  22  24
ATOM     24  N   UNL     1      52.869  49.108  19.864  1.00  0.00    -0.382 N 
ATOM     25  H   UNL     1      52.124  48.463  19.629  1.00  0.00    +0.158 HD
ATOM     26  H   UNL     1      53.820  48.824  19.670  1.00  0.00    +0.158 HD
ENDBRANCH  22  24
ENDBRANCH   1  15
TORSDOF 7
ENDMDL
MODEL 2
REMARK VINA RESULT:    -8.362      3.944      6.595
REMARK INTER + INTRA:         -11.985
REMARK INTER:                 -11.632
REMARK INTRA:                  -0.353
REMARK UNBOUND:                -0.690
REMARK SMILES Cc1cccc(CC[C@H]([C@H](C)O)n2cnc3c(N)ncnc32)c1
REMARK SMILES IDX 9 1 10 2 11 3 12 4 8 6 7 7 6 8 5 9 23 10 4 11 2 12 3 13 1 14
REMARK SMILES IDX 13 15 14 16 22 17 15 18 21 19 16 20 20 21 17 22 19 23 18 24
REMARK H PARENT 12 5 18 25 18 26
ROOT
ATOM      1  C   UNL     1      51.136  51.340  19.352  1.00  0.00    +0.119 C 
ENDROOT
BRANCH   1   2
ATOM      2  C   UNL     1      52.494  50.897  18.747  1.00  0.00    +0.134 C 
ATOM      3  C   UNL     1      52.462  50.825  17.221  1.00  0.00    +0.040 C 
BRANCH   2   4
ATOM      4  O   UNL     1      52.862  49.608  19.237  1.00  0.00    -0.391 OA
ATOM      5  H   UNL     1      53.727  49.689  19.678  1.00  0.00    +0.211 HD
ENDBRANCH   2   4
ENDBRANCH   1   2
BRANCH   1   6
ATOM      6  C   UNL     1      50.314  50.168  19.939  1.00  0.00    +0.033 C 
BRANCH   6   7
ATOM      7  C   UNL     1      49.933  49.114  18.893  1.00  0.00    +0.038 C 
BRANCH   7   8
ATOM      8  C   UNL     1      48.513  49.306  18.419  1.00  0.00    -0.048 A 
ATOM      9  C   UNL     1      48.187  50.375  17.576  1.00  0.00    +0.004 A 
ATOM     10  C   UNL     1      47.509  48.400  18.790  1.00  0.00    +0.007 A 
ATOM     11  C   UNL     1      46.879  50.545  17.126  1.00  0.00    +0.001 A 
ATOM     12  C   UNL     1      46.195  48.555  18.329  1.00  0.00    -0.051 A 
ATOM     13  C   UNL     1      45.885  49.642  17.504  1.00  0.00    +0.003 A 
ATOM     14  C   UNL     1      45.122  47.599  18.762  1.00  0.00    +0.044 C 
ENDBRANCH   7   8
ENDBRANCH   6   7
ENDBRANCH   1   6
BRANCH   1  15
ATOM     15  N   UNL     1      51.332  52.375  20.365  1.00  0.00    -0.309 N 
ATOM     16  C   UNL     1      51.376  52.192  21.724  1.00  0.00    +0.202 A 
ATOM     17  C   UNL     1      51.521  53.710  20.125  1.00  0.00    +0.165 A 
ATOM     18  N   UNL     1      51.588  53.320  22.367  1.00  0.00    -0.231 NA
ATOM     19  N   UNL     1      51.567  54.335  18.937  1.00  0.00    -0.217 NA
ATOM     20  C   UNL     1      51.666  54.281  21.378  1.00  0.00    +0.150 A 
ATOM     21  C   UNL     1      51.781  55.657  19.099  1.00  0.00    +0.226 A 
ATOM     22  C   UNL     1      51.876  55.669  21.418  1.00  0.00    +0.155 A 
ATOM     23  N   UNL     1      51.944  56.347  20.249  1.00  0.00    -0.217 NA
BRANCH  22  24
ATOM     24  N   UNL     1      52.039  56.381  22.600  1.00  0.00    -0.382 N 
ATOM     25  H   UNL     1      51.335  56.172  23.298  1.00  0.00    +0.158 HD
ATOM     26  H   UNL     1      53.005  56.416  22.895  1.00  0.00    +0.158 HD
ENDBRANCH  22  24
ENDBRANCH   1  15
TORSDOF 7
ENDMDL
MODEL 3
REMARK VINA RESULT:    -8.279      4.401      7.383
REMARK INTER + INTRA:         -11.872
REMARK INTER:                 -10.750
REMARK INTRA:                  -1.123
REMARK UNBOUND:                -0.690
REMARK SMILES Cc1cccc(CC[C@H]([C@H](C)O)n2cnc3c(N)ncnc32)c1
REMARK SMILES IDX 9 1 10 2 11 3 12 4 8 6 7 7 6 8 5 9 23 10 4 11 2 12 3 13 1 14
REMARK SMILES IDX 13 15 14 16 22 17 15 18 21 19 16 20 20 21 17 22 19 23 18 24
REMARK H PARENT 12 5 18 25 18 26
ROOT
ATOM      1  C   UNL     1      49.637  51.707  18.249  1.00  0.00    +0.119 C 
ENDROOT
BRANCH   1   2
ATOM      2  C   UNL     1      48.995  51.973  16.862  1.00  0.00    +0.134 C 
ATOM      3  C   UNL     1      47.479  51.786  16.872  1.00  0.00    +0.040 C 
BRANCH   2   4
ATOM      4  O   UNL     1      49.538  51.088  15.883  1.00  0.00    -0.391 OA
ATOM      5  H   UNL     1      50.495  51.261  15.818  1.00  0.00    +0.211 HD
ENDBRANCH   2   4
ENDBRANCH   1   2
BRANCH   1   6
ATOM      6  C   UNL     1      50.275  50.304  18.372  1.00  0.00    +0.033 C 
BRANCH   6   7
ATOM      7  C   UNL     1      49.455  49.341  19.237  1.00  0.00    +0.038 C 
BRANCH   7   8
ATOM      8  C   UNL     1      48.445  48.585  18.407  1.00  0.00    -0.048 A 
ATOM      9  C   UNL     1      48.856  47.869  17.276  1.00  0.00    +0.004 A 
ATOM     10  C   UNL     1      47.092  48.567  18.772  1.00  0.00    +0.007 A 
ATOM     11  C   UNL     1      47.927  47.160  16.516  1.00  0.00    +0.001 A 
ATOM     12  C   UNL     1      46.155  47.844  18.023  1.00  0.00    -0.051 A 
ATOM     13  C   UNL     1      46.580  47.151  16.884  1.00  0.00    +0.003 A 
ATOM     14  C   UNL     1      44.703  47.861  18.403  1.00  0.00    +0.044 C 
ENDBRANCH   7   8
ENDBRANCH   6   7
ENDBRANCH   1   6
BRANCH   1  15
ATOM     15  N   UNL     1      50.622  52.739  18.571  1.00  0.00    -0.309 N 
ATOM     16  C   UNL     1      51.981  52.655  18.397  1.00  0.00    +0.202 A 
ATOM     17  C   UNL     1      50.350  53.976  19.091  1.00  0.00    +0.165 A 
ATOM     18  N   UNL     1      52.593  53.760  18.764  1.00  0.00    -0.231 NA
ATOM     19  N   UNL     1      49.151  54.493  19.405  1.00  0.00    -0.217 NA
ATOM     20  C   UNL     1      51.585  54.590  19.214  1.00  0.00    +0.150 A 
ATOM     21  C   UNL     1      49.280  55.747  19.884  1.00  0.00    +0.226 A 
ATOM     22  C   UNL     1      51.592  55.895  19.735  1.00  0.00    +0.155 A 
ATOM     23  N   UNL     1      50.409  56.469  20.056  1.00  0.00    -0.217 NA
BRANCH  22  24
ATOM     24  N   UNL     1      52.752  56.636  19.916  1.00  0.00    -0.382 N 
ATOM     25  H   UNL     1      52.707  57.269  20.706  1.00  0.00    +0.158 HD
ATOM     26  H   UNL     1      53.586  56.076  19.803  1.00  0.00    +0.158 HD
ENDBRANCH  22  24
ENDBRANCH   1  15
TORSDOF 7
ENDMDL
MODEL 4
REMARK VINA RESULT:    -8.274      3.382      4.699
REMARK INTER + INTRA:         -11.866
REMARK INTER:                 -11.115
REMARK INTRA:                  -0.751
REMARK UNBOUND:                -0.690
REMARK SMILES Cc1cccc(CC[C@H]([C@H](C)O)n2cnc3c(N)ncnc32)c1
REMARK SMILES IDX 9 1 10 2 11 3 12 4 8 6 7 7 6 8 5 9 23 10 4 11 2 12 3 13 1 14
REMARK SMILES IDX 13 15 14 16 22 17 15 18 21 19 16 20 20 21 17 22 19 23 18 24
REMARK H PARENT 12 5 18 25 18 26
ROOT
ATOM      1  C   UNL     1      49.781  52.564  18.678  1.00  0.00    +0.119 C 
ENDROOT
BRANCH   1   2
ATOM      2  C   UNL     1      51.290  52.246  18.845  1.00  0.00    +0.134 C 
ATOM      3  C   UNL     1      51.773  52.434  20.283  1.00  0.00    +0.040 C 
BRANCH   2   4
ATOM      4  O   UNL     1      52.075  53.092  18.006  1.00  0.00    -0.391 OA
ATOM      5  H   UNL     1      52.897  52.618  17.784  1.00  0.00    +0.211 HD
ENDBRANCH   2   4
ENDBRANCH   1   2
BRANCH   1   6
ATOM      6  C   UNL     1      49.497  54.056  18.387  1.00  0.00    +0.033 C 
BRANCH   6   7
ATOM      7  C   UNL     1      48.302  54.607  19.173  1.00  0.00    +0.038 C 
BRANCH   7   8
ATOM      8  C   UNL     1      48.719  55.742  20.076  1.00  0.00    -0.048 A 
ATOM      9  C   UNL     1      47.862  56.829  20.288  1.00  0.00    +0.004 A 
ATOM     10  C   UNL     1      49.956  55.710  20.737  1.00  0.00    +0.007 A 
ATOM     11  C   UNL     1      48.241  57.871  21.133  1.00  0.00    +0.001 A 
ATOM     12  C   UNL     1      50.337  56.746  21.600  1.00  0.00    -0.051 A 
ATOM     13  C   UNL     1      49.475  57.833  21.782  1.00  0.00    +0.003 A 
ATOM     14  C   UNL     1      51.677  56.718  22.273  1.00  0.00    +0.044 C 
ENDBRANCH   7   8
ENDBRANCH   6   7
ENDBRANCH   1   6
BRANCH   1  15
ATOM     15  N   UNL     1      49.187  51.725  17.637  1.00  0.00    -0.309 N 
ATOM     16  C   UNL     1      48.711  52.146  16.420  1.00  0.00    +0.202 A 
ATOM     17  C   UNL     1      49.017  50.368  17.697  1.00  0.00    +0.165 A 
ATOM     18  N   UNL     1      48.257  51.146  15.696  1.00  0.00    -0.231 NA
ATOM     19  N   UNL     1      49.355  49.539  18.698  1.00  0.00    -0.217 NA
ATOM     20  C   UNL     1      48.429  50.029  16.491  1.00  0.00    +0.150 A 
ATOM     21  C   UNL     1      49.041  48.264  18.390  1.00  0.00    +0.226 A 
ATOM     22  C   UNL     1      48.141  48.669  16.290  1.00  0.00    +0.155 A 
ATOM     23  N   UNL     1      48.473  47.787  17.261  1.00  0.00    -0.217 NA
BRANCH  22  24
ATOM     24  N   UNL     1      47.553  48.178  15.131  1.00  0.00    -0.382 N 
ATOM     25  H   UNL     1      46.587  47.900  15.256  1.00  0.00    +0.158 HD
ATOM     26  H   UNL     1      47.786  48.732  14.319  1.00  0.00    +0.158 HD
ENDBRANCH  22  24
ENDBRANCH   1  15
TORSDOF 7
ENDMDL
MODEL 5
REMARK VINA RESULT:    -7.970      1.262      2.051
REMARK INTER + INTRA:         -11.456
REMARK INTER:                 -10.766
REMARK INTRA:                  -0.689
REMARK UNBOUND:                -0.690
REMARK SMILES Cc1cccc(CC[C@H]([C@H](C)O)n2cnc3c(N)ncnc32)c1
REMARK SMILES IDX 9 1 10 2 11 3 12 4 8 6 7 7 6 8 5 9 23 10 4 11 2 12 3 13 1 14
REMARK SMILES IDX 13 15 14 16 22 17 15 18 21 19 16 20 20 21 17 22 19 23 18 24
REMARK H PARENT 12 5 18 25 18 26
ROOT
ATOM      1  C   UNL     1      50.029  54.886  20.727  1.00  0.00    +0.119 C 
ENDROOT
BRANCH   1   2
ATOM      2  C   UNL     1      51.116  55.933  21.085  1.00  0.00    +0.134 C 
ATOM      3  C   UNL     1      51.927  56.376  19.868  1.00  0.00    +0.040 C 
BRANCH   2   4
ATOM      4  O   UNL     1      52.026  55.401  22.047  1.00  0.00    -0.391 OA
ATOM      5  H   UNL     1      52.245  54.489  21.781  1.00  0.00    +0.211 HD
ENDBRANCH   2   4
ENDBRANCH   1   2
BRANCH   1   6
ATOM      6  C   UNL     1      48.772  55.505  20.073  1.00  0.00    +0.033 C 
BRANCH   6   7
ATOM      7  C   UNL     1      48.358  56.839  20.703  1.00  0.00    +0.038 C 
BRANCH   7   8
ATOM      8  C   UNL     1      47.902  57.821  19.651  1.00  0.00    -0.048 A 
ATOM      9  C   UNL     1      47.844  57.439  18.305  1.00  0.00    +0.004 A 
ATOM     10  C   UNL     1      47.503  59.117  20.011  1.00  0.00    +0.007 A 
ATOM     11  C   UNL     1      47.410  58.341  17.335  1.00  0.00    +0.001 A 
ATOM     12  C   UNL     1      47.051  60.023  19.043  1.00  0.00    -0.051 A 
ATOM     13  C   UNL     1      47.020  59.630  17.701  1.00  0.00    +0.003 A 
ATOM     14  C   UNL     1      46.661  61.418  19.435  1.00  0.00    +0.044 C 
ENDBRANCH   7   8
ENDBRANCH   6   7
ENDBRANCH   1   6
BRANCH   1  15
ATOM     15  N   UNL     1      50.581  53.839  19.868  1.00  0.00    -0.309 N 
ATOM     16  C   UNL     1      50.459  53.751  18.504  1.00  0.00    +0.202 A 
ATOM     17  C   UNL     1      51.329  52.770  20.283  1.00  0.00    +0.165 A 
ATOM     18  N   UNL     1      51.087  52.701  18.020  1.00  0.00    -0.231 NA
ATOM     19  N   UNL     1      51.709  52.466  21.534  1.00  0.00    -0.217 NA
ATOM     20  C   UNL     1      51.624  52.070  19.125  1.00  0.00    +0.150 A 
ATOM     21  C   UNL     1      52.450  51.339  21.550  1.00  0.00    +0.226 A 
ATOM     22  C   UNL     1      52.397  50.907  19.270  1.00  0.00    +0.155 A 
ATOM     23  N   UNL     1      52.817  50.560  20.509  1.00  0.00    -0.217 NA
BRANCH  22  24
ATOM     24  N   UNL     1      52.771  50.102  18.201  1.00  0.00    -0.382 N 
ATOM     25  H   UNL     1      53.644  49.610  18.353  1.00  0.00    +0.158 HD
ATOM     26  H   UNL     1      51.992  49.582  17.823  1.00  0.00    +0.158 HD
ENDBRANCH  22  24
ENDBRANCH   1  15
TORSDOF 7
ENDMDL
