MODEL 1
REMARK VINA RESULT:    -8.503      0.000      0.000
REMARK INTER + INTRA:         -12.340
REMARK INTER:                 -11.485
REMARK INTRA:                  -0.855
REMARK UNBOUND:                -0.855
REMARK SMILES CCc1cccc(C[C@H]([C@H](C)O)n2cnc3c(N)ncnc32)c1
REMARK SMILES IDX 8 1 7 2 3 3 4 4 23 5 5 6 6 7 2 8 1 9 9 10 10 11 11 12 12 13
REMARK SMILES IDX 13 15 14 16 22 17 15 18 21 19 16 20 20 21 17 22 19 23 18 24
REMARK H PARENT 12 14 18 25 18 26
ROOT
ATOM      1  C   UNL     1      50.421  50.011  19.272  1.00  0.00    +0.063 C 
ENDROOT
BRANCH   1   2
ATOM      2  C   UNL     1      49.081  49.939  18.575  1.00  0.00    -0.046 A 
ATOM      3  C   UNL     1      46.930  48.841  18.229  1.00  0.00    -0.048 A 
ATOM      4  C   UNL     1      46.576  49.844  17.319  1.00  0.00    +0.004 A 
ATOM      5  C   UNL     1      48.188  48.893  18.846  1.00  0.00    +0.007 A 
ATOM      6  C   UNL     1      47.459  50.887  17.040  1.00  0.00    +0.001 A 
ATOM      7  C   UNL     1      48.704  50.937  17.667  1.00  0.00    +0.004 A 
BRANCH   3   8
ATOM      8  C   UNL     1      45.981  47.708  18.525  1.00  0.00    +0.032 C 
ATOM      9  C   UNL     1      44.569  48.014  18.048  1.00  0.00    +0.009 C 
ENDBRANCH   3   8
ENDBRANCH   1   2
BRANCH   1  10
ATOM     10  C   UNL     1      51.234  51.277  18.907  1.00  0.00    +0.123 C 
BRANCH  10  11
ATOM     11  C   UNL     1      52.614  50.908  18.307  1.00  0.00    +0.134 C 
ATOM     12  C   UNL     1      52.596  50.760  16.787  1.00  0.00    +0.040 C 
BRANCH  11  13
ATOM     13  O   UNL     1      53.081  49.674  18.865  1.00  0.00    -0.391 OA
ATOM     14  H   UNL     1      52.945  48.968  18.209  1.00  0.00    +0.211 HD
ENDBRANCH  11  13
ENDBRANCH  10  11
BRANCH  10  15
ATOM     15  N   UNL     1      51.368  52.183  20.040  1.00  0.00    -0.309 N 
ATOM     16  C   UNL     1      51.344  51.846  21.370  1.00  0.00    +0.202 A 
ATOM     17  C   UNL     1      51.553  53.538  19.963  1.00  0.00    +0.165 A 
ATOM     18  N   UNL     1      51.484  52.899  22.149  1.00  0.00    -0.231 NA
ATOM     19  N   UNL     1      51.654  54.293  18.857  1.00  0.00    -0.217 NA
ATOM     20  C   UNL     1      51.620  53.964  21.280  1.00  0.00    +0.150 A 
ATOM     21  C   UNL     1      51.807  55.593  19.180  1.00  0.00    +0.226 A 
ATOM     22  C   UNL     1      51.802  55.340  21.487  1.00  0.00    +0.155 A 
ATOM     23  N   UNL     1      51.880  56.153  20.408  1.00  0.00    -0.217 NA
BRANCH  22  24
ATOM     24  N   UNL     1      51.889  55.915  22.750  1.00  0.00    -0.382 N 
ATOM     25  H   UNL     1      51.364  55.393  23.438  1.00  0.00    +0.158 HD
ATOM     26  H   UNL     1      52.831  56.201  22.992  1.00  0.00    +0.158 HD
ENDBRANCH  22  24
ENDBRANCH  10  15
ENDBRANCH   1  10
TORSDOF 7
ENDMDL
MODEL 2
REMARK VINA RESULT:    -8.248      3.915      6.447
REMARK INTER + INTRA:         -11.996
REMARK INTER:                 -11.487
REMARK INTRA:                  -0.509
REMARK UNBOUND:                -0.855
REMARK SMILES CCc1cccc(C[C@H]([C@H](C)O)n2cnc3c(N)ncnc32)c1
REMARK SMILES IDX 8 1 7 2 3 3 4 4 23 5 5 6 6 7 2 8 1 9 9 10 10 11 11 12 12 13
REMARK SMILES IDX 13 15 14 16 22 17 15 18 21 19 16 20 20 21 17 22 19 23 18 24
REMARK H PARENT 12 14 18 25 18 26
ROOT
ATOM      1  C   UNL     1      49.867  54.936  19.748  1.00  0.00    +0.063 C 
ENDROOT
BRANCH   1   2
ATOM      2  C   UNL     1      49.175  56.268  19.933  1.00  0.00    -0.046 A 
ATOM      3  C   UNL     1      47.941  58.160  19.011  1.00  0.00    -0.048 A 
ATOM      4  C   UNL     1      47.848  58.711  20.293  1.00  0.00    +0.004 A 
ATOM      5  C   UNL     1      48.614  56.941  18.839  1.00  0.00    +0.007 A 
ATOM      6  C   UNL     1      48.406  58.052  21.387  1.00  0.00    +0.001 A 
ATOM      7  C   UNL     1      49.064  56.835  21.210  1.00  0.00    +0.004 A 
BRANCH   3   8
ATOM      8  C   UNL     1      47.346  58.876  17.825  1.00  0.00    +0.032 C 
ATOM      9  C   UNL     1      47.145  57.941  16.642  1.00  0.00    +0.009 C 
ENDBRANCH   3   8
ENDBRANCH   1   2
BRANCH   1  10
ATOM     10  C   UNL     1      51.144  54.785  20.610  1.00  0.00    +0.123 C 
BRANCH  10  11
ATOM     11  C   UNL     1      52.311  55.632  20.043  1.00  0.00    +0.134 C 
ATOM     12  C   UNL     1      52.568  56.916  20.828  1.00  0.00    +0.040 C 
BRANCH  11  13
ATOM     13  O   UNL     1      52.044  55.993  18.683  1.00  0.00    -0.391 OA
ATOM     14  H   UNL     1      52.438  55.318  18.102  1.00  0.00    +0.211 HD
ENDBRANCH  11  13
ENDBRANCH  10  11
BRANCH  10  15
ATOM     15  N   UNL     1      51.527  53.388  20.776  1.00  0.00    -0.309 N 
ATOM     16  C   UNL     1      51.585  52.686  21.953  1.00  0.00    +0.202 A 
ATOM     17  C   UNL     1      51.887  52.534  19.769  1.00  0.00    +0.165 A 
ATOM     18  N   UNL     1      51.975  51.442  21.767  1.00  0.00    -0.231 NA
ATOM     19  N   UNL     1      51.954  52.793  18.453  1.00  0.00    -0.217 NA
ATOM     20  C   UNL     1      52.163  51.333  20.403  1.00  0.00    +0.150 A 
ATOM     21  C   UNL     1      52.372  51.706  17.773  1.00  0.00    +0.226 A 
ATOM     22  C   UNL     1      52.571  50.268  19.584  1.00  0.00    +0.155 A 
ATOM     23  N   UNL     1      52.685  50.482  18.253  1.00  0.00    -0.217 NA
BRANCH  22  24
ATOM     24  N   UNL     1      52.881  49.005  20.075  1.00  0.00    -0.382 N 
ATOM     25  H   UNL     1      53.302  49.052  20.994  1.00  0.00    +0.158 HD
ATOM     26  H   UNL     1      52.140  48.329  19.930  1.00  0.00    +0.158 HD
ENDBRANCH  22  24
ENDBRANCH  10  15
ENDBRANCH   1  10
TORSDOF 7
ENDMDL
MODEL 3
REMARK VINA RESULT:    -7.735      2.924      6.948
REMARK INTER + INTRA:         -11.303
REMARK INTER:                 -10.657
REMARK INTRA:                  -0.646
REMARK UNBOUND:                -0.855
REMARK SMILES CCc1cccc(C[C@H]([C@H](C)O)n2cnc3c(N)ncnc32)c1
REMARK SMILES IDX 8 1 7 2 3 3 4 4 23 5 5 6 6 7 2 8 1 9 9 10 10 11 11 12 12 13
REMARK SMILES IDX 13 15 14 16 22 17 15 18 21 19 16 20 20 21 17 22 19 23 18 24
REMARK H PARENT 12 14 18 25 18 26
ROOT
ATOM      1  C   UNL     1      50.802  54.287  18.689  1.00  0.00    +0.063 C 
ENDROOT
BRANCH   1   2
ATOM      2  C   UNL     1      50.826  55.064  19.987  1.00  0.00    -0.046 A 
ATOM      3  C   UNL     1      49.918  56.811  21.427  1.00  0.00    -0.048 A 
ATOM      4  C   UNL     1      50.843  56.462  22.417  1.00  0.00    +0.004 A 
ATOM      5  C   UNL     1      49.922  56.111  20.212  1.00  0.00    +0.007 A 
ATOM      6  C   UNL     1      51.749  55.424  22.202  1.00  0.00    +0.001 A 
ATOM      7  C   UNL     1      51.739  54.725  20.995  1.00  0.00    +0.004 A 
BRANCH   3   8
ATOM      8  C   UNL     1      48.944  57.939  21.655  1.00  0.00    +0.032 C 
ATOM      9  C   UNL     1      47.756  57.859  20.708  1.00  0.00    +0.009 C 
ENDBRANCH   3   8
ENDBRANCH   1   2
BRANCH   1  10
ATOM     10  C   UNL     1      50.711  52.756  18.894  1.00  0.00    +0.123 C 
BRANCH  10  11
ATOM     11  C   UNL     1      52.049  52.060  18.542  1.00  0.00    +0.134 C 
ATOM     12  C   UNL     1      52.763  51.465  19.754  1.00  0.00    +0.040 C 
BRANCH  11  13
ATOM     13  O   UNL     1      52.942  52.990  17.919  1.00  0.00    -0.391 OA
ATOM     14  H   UNL     1      53.578  52.491  17.376  1.00  0.00    +0.211 HD
ENDBRANCH  11  13
ENDBRANCH  10  11
BRANCH  10  15
ATOM     15  N   UNL     1      49.595  52.173  18.160  1.00  0.00    -0.309 N 
ATOM     16  C   UNL     1      48.772  52.815  17.269  1.00  0.00    +0.202 A 
ATOM     17  C   UNL     1      49.186  50.868  18.230  1.00  0.00    +0.165 A 
ATOM     18  N   UNL     1      47.852  52.011  16.780  1.00  0.00    -0.231 NA
ATOM     19  N   UNL     1      49.717  49.877  18.965  1.00  0.00    -0.217 NA
ATOM     20  C   UNL     1      48.103  50.788  17.370  1.00  0.00    +0.150 A 
ATOM     21  C   UNL     1      49.026  48.732  18.791  1.00  0.00    +0.226 A 
ATOM     22  C   UNL     1      47.479  49.535  17.259  1.00  0.00    +0.155 A 
ATOM     23  N   UNL     1      47.954  48.508  18.000  1.00  0.00    -0.217 NA
BRANCH  22  24
ATOM     24  N   UNL     1      46.384  49.300  16.436  1.00  0.00    -0.382 N 
ATOM     25  H   UNL     1      45.615  49.923  16.646  1.00  0.00    +0.158 HD
ATOM     26  H   UNL     1      46.637  49.174  15.463  1.00  0.00    +0.158 HD
ENDBRANCH  22  24
ENDBRANCH  10  15
ENDBRANCH   1  10
TORSDOF 7
ENDMDL
MODEL 4
REMARK VINA RESULT:    -7.593      3.354      7.090
REMARK INTER + INTRA:         -11.111
REMARK INTER:                 -10.262
REMARK INTRA:                  -0.850
REMARK UNBOUND:                -0.855
REMARK SMILES CCc1cccc(C[C@H]([C@H](C)O)n2cnc3c(N)ncnc32)c1
REMARK SMILES IDX 8 1 7 2 3 3 4 4 23 5 5 6 6 7 2 8 1 9 9 10 10 11 11 12 12 13
REMARK SMILES IDX 13 15 14 16 22 17 15 18 21 19 16 20 20 21 17 22 19 23 18 24
REMARK H PARENT 12 14 18 25 18 26
ROOT
ATOM      1  C   UNL     1      50.843  51.694  18.517  1.00  0.00    +0.063 C 
ENDROOT
BRANCH   1   2
ATOM      2  C   UNL     1      50.751  52.840  19.500  1.00  0.00    -0.046 A 
ATOM      3  C   UNL     1      49.654  54.873  20.286  1.00  0.00    -0.048 A 
ATOM      4  C   UNL     1      50.553  54.931  21.356  1.00  0.00    +0.004 A 
ATOM      5  C   UNL     1      49.765  53.827  19.357  1.00  0.00    +0.007 A 
ATOM      6  C   UNL     1      51.539  53.956  21.504  1.00  0.00    +0.001 A 
ATOM      7  C   UNL     1      51.636  52.913  20.583  1.00  0.00    +0.004 A 
BRANCH   3   8
ATOM      8  C   UNL     1      48.594  55.931  20.119  1.00  0.00    +0.032 C 
ATOM      9  C   UNL     1      48.836  57.122  21.033  1.00  0.00    +0.009 C 
ENDBRANCH   3   8
ENDBRANCH   1   2
BRANCH   1  10
ATOM     10  C   UNL     1      49.937  50.495  18.889  1.00  0.00    +0.123 C 
BRANCH  10  11
ATOM     11  C   UNL     1      50.755  49.352  19.543  1.00  0.00    +0.134 C 
ATOM     12  C   UNL     1      50.526  49.225  21.047  1.00  0.00    +0.040 C 
BRANCH  11  13
ATOM     13  O   UNL     1      52.155  49.560  19.326  1.00  0.00    -0.391 OA
ATOM     14  H   UNL     1      52.417  49.077  18.522  1.00  0.00    +0.211 HD
ENDBRANCH  11  13
ENDBRANCH  10  11
BRANCH  10  15
ATOM     15  N   UNL     1      49.169  50.017  17.746  1.00  0.00    -0.309 N 
ATOM     16  C   UNL     1      49.446  50.235  16.420  1.00  0.00    +0.202 A 
ATOM     17  C   UNL     1      48.035  49.252  17.809  1.00  0.00    +0.165 A 
ATOM     18  N   UNL     1      48.553  49.675  15.631  1.00  0.00    -0.231 NA
ATOM     19  N   UNL     1      47.413  48.789  18.906  1.00  0.00    -0.217 NA
ATOM     20  C   UNL     1      47.667  49.052  16.488  1.00  0.00    +0.150 A 
ATOM     21  C   UNL     1      46.309  48.092  18.570  1.00  0.00    +0.226 A 
ATOM     22  C   UNL     1      46.508  48.291  16.266  1.00  0.00    +0.155 A 
ATOM     23  N   UNL     1      45.825  47.825  17.336  1.00  0.00    -0.217 NA
BRANCH  22  24
ATOM     24  N   UNL     1      46.016  48.006  14.998  1.00  0.00    -0.382 N 
ATOM     25  H   UNL     1      46.606  47.350  14.504  1.00  0.00    +0.158 HD
ATOM     26  H   UNL     1      45.016  47.842  14.987  1.00  0.00    +0.158 HD
ENDBRANCH  22  24
ENDBRANCH  10  15
ENDBRANCH   1  10
TORSDOF 7
ENDMDL
MODEL 5
REMARK VINA RESULT:    -7.515      2.943      6.587
REMARK INTER + INTRA:         -11.006
REMARK INTER:                 -10.423
REMARK INTRA:                  -0.583
REMARK UNBOUND:                -0.855
REMARK SMILES CCc1cccc(C[C@H]([C@H](C)O)n2cnc3c(N)ncnc32)c1
REMARK SMILES IDX 8 1 7 2 3 3 4 4 23 5 5 6 6 7 2 8 1 9 9 10 10 11 11 12 12 13
REMARK SMILES IDX 13 15 14 16 22 17 15 18 21 19 16 20 20 21 17 22 19 23 18 24
REMARK H PARENT 12 14 18 25 18 26
ROOT
ATOM      1  C   UNL     1      51.942  53.831  20.039  1.00  0.00    +0.063 C 
ENDROOT
BRANCH   1   2
ATOM      2  C   UNL     1      51.205  55.027  20.598  1.00  0.00    -0.046 A 
ATOM      3  C   UNL     1      49.207  56.423  20.708  1.00  0.00    -0.048 A 
ATOM      4  C   UNL     1      49.827  57.216  21.680  1.00  0.00    +0.004 A 
ATOM      5  C   UNL     1      49.907  55.335  20.166  1.00  0.00    +0.007 A 
ATOM      6  C   UNL     1      51.118  56.920  22.114  1.00  0.00    +0.001 A 
ATOM      7  C   UNL     1      51.804  55.830  21.579  1.00  0.00    +0.004 A 
BRANCH   3   8
ATOM      8  C   UNL     1      47.814  56.747  20.231  1.00  0.00    +0.032 C 
ATOM      9  C   UNL     1      47.409  58.168  20.593  1.00  0.00    +0.009 C 
ENDBRANCH   3   8
ENDBRANCH   1   2
BRANCH   1  10
ATOM     10  C   UNL     1      51.102  52.531  20.060  1.00  0.00    +0.123 C 
BRANCH  10  11
ATOM     11  C   UNL     1      51.403  51.685  21.323  1.00  0.00    +0.134 C 
ATOM     12  C   UNL     1      50.813  50.277  21.267  1.00  0.00    +0.040 C 
BRANCH  11  13
ATOM     13  O   UNL     1      50.882  52.335  22.488  1.00  0.00    -0.391 OA
ATOM     14  H   UNL     1      49.913  52.237  22.489  1.00  0.00    +0.211 HD
ENDBRANCH  11  13
ENDBRANCH  10  11
BRANCH  10  15
ATOM     15  N   UNL     1      51.273  51.751  18.840  1.00  0.00    -0.309 N 
ATOM     16  C   UNL     1      52.422  51.133  18.415  1.00  0.00    +0.202 A 
ATOM     17  C   UNL     1      50.300  51.495  17.913  1.00  0.00    +0.165 A 
ATOM     18  N   UNL     1      52.252  50.513  17.266  1.00  0.00    -0.231 NA
ATOM     19  N   UNL     1      49.017  51.891  17.933  1.00  0.00    -0.217 NA
ATOM     20  C   UNL     1      50.926  50.728  16.943  1.00  0.00    +0.150 A 
ATOM     21  C   UNL     1      48.368  51.465  16.830  1.00  0.00    +0.226 A 
ATOM     22  C   UNL     1      50.139  50.328  15.851  1.00  0.00    +0.155 A 
ATOM     23  N   UNL     1      48.846  50.725  15.806  1.00  0.00    -0.217 NA
BRANCH  22  24
ATOM     24  N   UNL     1      50.626  49.557  14.803  1.00  0.00    -0.382 N 
ATOM     25  H   UNL     1      50.993  48.671  15.126  1.00  0.00    +0.158 HD
ATOM     26  H   UNL     1      50.011  49.546  13.997  1.00  0.00    +0.158 HD
ENDBRANCH  22  24
ENDBRANCH  10  15
ENDBRANCH   1  10
TORSDOF 7
ENDMDL
