MODEL 1
REMARK VINA RESULT:    -8.488      0.000      0.000
REMARK INTER + INTRA:         -13.525
REMARK INTER:                 -12.458
REMARK INTRA:                  -1.067
REMARK UNBOUND:                -1.067
REMARK SMILES C[C@H](O)[C@@H](CCCCc1ccccc1)n1cnc2c(N)ncnc21
REMARK SMILES IDX 5 1 4 2 2 3 1 4 3 5 15 7 16 8 24 9 17 10 23 11 18 12 22 13
REMARK SMILES IDX 19 14 21 15 20 16 6 19 7 20 8 21 9 22 10 23 14 24 11 25
REMARK SMILES IDX 13 26 12 27
REMARK H PARENT 3 6 20 17 20 18
ROOT
ATOM      1  C   UNL     1      50.142  51.594  19.526  1.00  0.00    +0.028 C 
ENDROOT
BRANCH   1   2
ATOM      2  C   UNL     1      51.587  51.881  20.007  1.00  0.00    +0.118 C 
BRANCH   2   3
ATOM      3  C   UNL     1      52.202  50.656  20.730  1.00  0.00    +0.134 C 
ATOM      4  C   UNL     1      52.873  49.665  19.780  1.00  0.00    +0.040 C 
BRANCH   3   5
ATOM      5  O   UNL     1      51.192  49.950  21.460  1.00  0.00    -0.391 OA
ATOM      6  H   UNL     1      51.627  49.271  22.007  1.00  0.00    +0.211 HD
ENDBRANCH   3   5
ENDBRANCH   2   3
BRANCH   2   7
ATOM      7  N   UNL     1      51.659  53.079  20.831  1.00  0.00    -0.309 N 
ATOM      8  C   UNL     1      51.605  53.140  22.200  1.00  0.00    +0.202 A 
ATOM      9  C   UNL     1      51.804  54.360  20.369  1.00  0.00    +0.165 A 
ATOM     10  N   UNL     1      51.704  54.375  22.644  1.00  0.00    -0.231 NA
ATOM     11  N   UNL     1      51.897  54.770  19.093  1.00  0.00    -0.217 NA
ATOM     12  C   UNL     1      51.838  55.148  21.508  1.00  0.00    +0.150 A 
ATOM     13  C   UNL     1      52.021  56.112  19.030  1.00  0.00    +0.226 A 
ATOM     14  C   UNL     1      51.984  56.531  21.312  1.00  0.00    +0.155 A 
ATOM     15  N   UNL     1      52.061  57.001  20.046  1.00  0.00    -0.217 NA
BRANCH  14  16
ATOM     16  N   UNL     1      52.036  57.447  22.356  1.00  0.00    -0.382 N 
ATOM     17  H   UNL     1      52.978  57.767  22.537  1.00  0.00    +0.158 HD
ATOM     18  H   UNL     1      51.298  58.141  22.319  1.00  0.00    +0.158 HD
ENDBRANCH  14  16
ENDBRANCH   2   7
ENDBRANCH   1   2
BRANCH   1  19
ATOM     19  C   UNL     1      50.038  51.458  18.001  1.00  0.00    +0.003 C 
BRANCH  19  20
ATOM     20  C   UNL     1      49.639  50.051  17.546  1.00  0.00    +0.005 C 
BRANCH  20  21
ATOM     21  C   UNL     1      48.909  49.250  18.627  1.00  0.00    +0.035 C 
BRANCH  21  22
ATOM     22  C   UNL     1      47.478  48.971  18.239  1.00  0.00    -0.048 A 
ATOM     23  C   UNL     1      46.917  49.577  17.108  1.00  0.00    +0.004 A 
ATOM     24  C   UNL     1      46.699  48.080  18.990  1.00  0.00    +0.004 A 
ATOM     25  C   UNL     1      45.598  49.305  16.740  1.00  0.00    +0.000 A 
ATOM     26  C   UNL     1      45.380  47.811  18.622  1.00  0.00    +0.000 A 
ATOM     27  C   UNL     1      44.830  48.424  17.498  1.00  0.00    +0.000 A 
ENDBRANCH  21  22
ENDBRANCH  20  21
ENDBRANCH  19  20
ENDBRANCH   1  19
TORSDOF 9
ENDMDL
MODEL 2
REMARK VINA RESULT:    -8.099      1.867      2.848
REMARK INTER + INTRA:         -12.954
REMARK INTER:                 -12.010
REMARK INTRA:                  -0.944
REMARK UNBOUND:                -1.067
REMARK SMILES C[C@H](O)[C@@H](CCCCc1ccccc1)n1cnc2c(N)ncnc21
REMARK SMILES IDX 5 1 4 2 2 3 1 4 3 5 15 7 16 8 24 9 17 10 23 11 18 12 22 13
REMARK SMILES IDX 19 14 21 15 20 16 6 19 7 20 8 21 9 22 10 23 14 24 11 25
REMARK SMILES IDX 13 26 12 27
REMARK H PARENT 3 6 20 17 20 18
ROOT
ATOM      1  C   UNL     1      49.580  54.104  19.794  1.00  0.00    +0.028 C 
ENDROOT
BRANCH   1   2
ATOM      2  C   UNL     1      51.040  54.445  20.184  1.00  0.00    +0.118 C 
BRANCH   2   3
ATOM      3  C   UNL     1      51.671  53.333  21.060  1.00  0.00    +0.134 C 
ATOM      4  C   UNL     1      51.102  51.943  20.781  1.00  0.00    +0.040 C 
BRANCH   3   5
ATOM      5  O   UNL     1      51.471  53.620  22.449  1.00  0.00    -0.391 OA
ATOM      6  H   UNL     1      50.932  54.428  22.520  1.00  0.00    +0.211 HD
ENDBRANCH   3   5
ENDBRANCH   2   3
BRANCH   2   7
ATOM      7  N   UNL     1      51.143  55.750  20.822  1.00  0.00    -0.309 N 
ATOM      8  C   UNL     1      50.153  56.415  21.499  1.00  0.00    +0.202 A 
ATOM      9  C   UNL     1      52.265  56.536  20.858  1.00  0.00    +0.165 A 
ATOM     10  N   UNL     1      50.567  57.574  21.964  1.00  0.00    -0.231 NA
ATOM     11  N   UNL     1      53.468  56.279  20.319  1.00  0.00    -0.217 NA
ATOM     12  C   UNL     1      51.889  57.659  21.577  1.00  0.00    +0.150 A 
ATOM     13  C   UNL     1      54.323  57.295  20.554  1.00  0.00    +0.226 A 
ATOM     14  C   UNL     1      52.874  58.643  21.766  1.00  0.00    +0.155 A 
ATOM     15  N   UNL     1      54.098  58.445  21.226  1.00  0.00    -0.217 NA
BRANCH  14  16
ATOM     16  N   UNL     1      52.648  59.822  22.466  1.00  0.00    -0.382 N 
ATOM     17  H   UNL     1      53.502  60.214  22.839  1.00  0.00    +0.158 HD
ATOM     18  H   UNL     1      52.001  60.448  22.000  1.00  0.00    +0.158 HD
ENDBRANCH  14  16
ENDBRANCH   2   7
ENDBRANCH   1   2
BRANCH   1  19
ATOM     19  C   UNL     1      49.271  54.410  18.321  1.00  0.00    +0.003 C 
BRANCH  19  20
ATOM     20  C   UNL     1      48.402  53.341  17.652  1.00  0.00    +0.005 C 
BRANCH  20  21
ATOM     21  C   UNL     1      49.156  52.040  17.367  1.00  0.00    +0.035 C 
BRANCH  21  22
ATOM     22  C   UNL     1      48.300  50.830  17.648  1.00  0.00    -0.048 A 
ATOM     23  C   UNL     1      48.788  49.779  18.433  1.00  0.00    +0.004 A 
ATOM     24  C   UNL     1      46.992  50.755  17.148  1.00  0.00    +0.004 A 
ATOM     25  C   UNL     1      47.988  48.668  18.706  1.00  0.00    +0.000 A 
ATOM     26  C   UNL     1      46.194  49.643  17.421  1.00  0.00    +0.000 A 
ATOM     27  C   UNL     1      46.693  48.599  18.199  1.00  0.00    +0.000 A 
ENDBRANCH  21  22
ENDBRANCH  20  21
ENDBRANCH  19  20
ENDBRANCH   1  19
TORSDOF 9
ENDMDL
MODEL 3
REMARK VINA RESULT:    -8.035      3.354      7.384
REMARK INTER + INTRA:         -12.859
REMARK INTER:                 -11.970
REMARK INTRA:                  -0.890
REMARK UNBOUND:                -1.067
REMARK SMILES C[C@H](O)[C@@H](CCCCc1ccccc1)n1cnc2c(N)ncnc21
REMARK SMILES IDX 5 1 4 2 2 3 1 4 3 5 15 7 16 8 24 9 17 10 23 11 18 12 22 13
REMARK SMILES IDX 19 14 21 15 20 16 6 19 7 20 8 21 9 22 10 23 14 24 11 25
REMARK SMILES IDX 13 26 12 27
REMARK H PARENT 3 6 20 17 20 18
ROOT
ATOM      1  C   UNL     1      50.879  52.038  20.283  1.00  0.00    +0.028 C 
ENDROOT
BRANCH   1   2
ATOM      2  C   UNL     1      50.420  50.586  20.001  1.00  0.00    +0.118 C 
BRANCH   2   3
ATOM      3  C   UNL     1      51.500  49.554  20.417  1.00  0.00    +0.134 C 
ATOM      4  C   UNL     1      52.862  49.807  19.775  1.00  0.00    +0.040 C 
BRANCH   3   5
ATOM      5  O   UNL     1      51.085  48.230  20.061  1.00  0.00    -0.391 OA
ATOM      6  H   UNL     1      51.006  48.183  19.091  1.00  0.00    +0.211 HD
ENDBRANCH   3   5
ENDBRANCH   2   3
BRANCH   2   7
ATOM      7  N   UNL     1      50.013  50.403  18.614  1.00  0.00    -0.309 N 
ATOM      8  C   UNL     1      50.617  50.935  17.503  1.00  0.00    +0.202 A 
ATOM      9  C   UNL     1      48.952  49.651  18.185  1.00  0.00    +0.165 A 
ATOM     10  N   UNL     1      50.010  50.575  16.392  1.00  0.00    -0.231 NA
ATOM     11  N   UNL     1      48.081  48.954  18.932  1.00  0.00    -0.217 NA
ATOM     12  C   UNL     1      48.971  49.765  16.804  1.00  0.00    +0.150 A 
ATOM     13  C   UNL     1      47.162  48.346  18.153  1.00  0.00    +0.226 A 
ATOM     14  C   UNL     1      47.968  49.075  16.103  1.00  0.00    +0.155 A 
ATOM     15  N   UNL     1      47.052  48.373  16.807  1.00  0.00    -0.217 NA
BRANCH  14  16
ATOM     16  N   UNL     1      47.859  49.092  14.717  1.00  0.00    -0.382 N 
ATOM     17  H   UNL     1      48.070  48.192  14.307  1.00  0.00    +0.158 HD
ATOM     18  H   UNL     1      47.038  49.584  14.385  1.00  0.00    +0.158 HD
ENDBRANCH  14  16
ENDBRANCH   2   7
ENDBRANCH   1   2
BRANCH   1  19
ATOM     19  C   UNL     1      50.854  52.390  21.777  1.00  0.00    +0.003 C 
BRANCH  19  20
ATOM     20  C   UNL     1      51.515  53.735  22.092  1.00  0.00    +0.005 C 
BRANCH  20  21
ATOM     21  C   UNL     1      51.549  54.688  20.894  1.00  0.00    +0.035 C 
BRANCH  21  22
ATOM     22  C   UNL     1      50.432  55.699  20.960  1.00  0.00    -0.048 A 
ATOM     23  C   UNL     1      50.534  56.820  21.793  1.00  0.00    +0.004 A 
ATOM     24  C   UNL     1      49.287  55.545  20.165  1.00  0.00    +0.004 A 
ATOM     25  C   UNL     1      49.506  57.764  21.840  1.00  0.00    +0.000 A 
ATOM     26  C   UNL     1      48.260  56.489  20.214  1.00  0.00    +0.000 A 
ATOM     27  C   UNL     1      48.369  57.597  21.052  1.00  0.00    +0.000 A 
ENDBRANCH  21  22
ENDBRANCH  20  21
ENDBRANCH  19  20
ENDBRANCH   1  19
TORSDOF 9
ENDMDL
MODEL 4
REMARK VINA RESULT:    -8.033      4.774      8.644
REMARK INTER + INTRA:         -12.857
REMARK INTER:                 -11.979
REMARK INTRA:                  -0.878
REMARK UNBOUND:                -1.067
REMARK SMILES C[C@H](O)[C@@H](CCCCc1ccccc1)n1cnc2c(N)ncnc21
REMARK SMILES IDX 5 1 4 2 2 3 1 4 3 5 15 7 16 8 24 9 17 10 23 11 18 12 22 13
REMARK SMILES IDX 19 14 21 15 20 16 6 19 7 20 8 21 9 22 10 23 14 24 11 25
REMARK SMILES IDX 13 26 12 27
REMARK H PARENT 3 6 20 17 20 18
ROOT
ATOM      1  C   UNL     1      48.617  52.300  16.713  1.00  0.00    +0.028 C 
ENDROOT
BRANCH   1   2
ATOM      2  C   UNL     1      48.505  50.847  17.237  1.00  0.00    +0.118 C 
BRANCH   2   3
ATOM      3  C   UNL     1      49.889  50.276  17.640  1.00  0.00    +0.134 C 
ATOM      4  C   UNL     1      50.189  50.408  19.132  1.00  0.00    +0.040 C 
BRANCH   3   5
ATOM      5  O   UNL     1      50.931  50.945  16.920  1.00  0.00    -0.391 OA
ATOM      6  H   UNL     1      51.325  50.314  16.292  1.00  0.00    +0.211 HD
ENDBRANCH   3   5
ENDBRANCH   2   3
BRANCH   2   7
ATOM      7  N   UNL     1      47.824  49.977  16.288  1.00  0.00    -0.309 N 
ATOM      8  C   UNL     1      48.245  49.649  15.025  1.00  0.00    +0.202 A 
ATOM      9  C   UNL     1      46.639  49.326  16.508  1.00  0.00    +0.165 A 
ATOM     10  N   UNL     1      47.407  48.834  14.422  1.00  0.00    -0.231 NA
ATOM     11  N   UNL     1      45.872  49.361  17.610  1.00  0.00    -0.217 NA
ATOM     12  C   UNL     1      46.401  48.617  15.342  1.00  0.00    +0.150 A 
ATOM     13  C   UNL     1      44.772  48.597  17.451  1.00  0.00    +0.226 A 
ATOM     14  C   UNL     1      45.227  47.847  15.303  1.00  0.00    +0.155 A 
ATOM     15  N   UNL     1      44.407  47.863  16.379  1.00  0.00    -0.217 NA
BRANCH  14  16
ATOM     16  N   UNL     1      44.854  47.082  14.204  1.00  0.00    -0.382 N 
ATOM     17  H   UNL     1      44.447  47.643  13.469  1.00  0.00    +0.158 HD
ATOM     18  H   UNL     1      45.546  46.388  13.945  1.00  0.00    +0.158 HD
ENDBRANCH  14  16
ENDBRANCH   2   7
ENDBRANCH   1   2
BRANCH   1  19
ATOM     19  C   UNL     1      48.005  53.329  17.675  1.00  0.00    +0.003 C 
BRANCH  19  20
ATOM     20  C   UNL     1      48.999  54.405  18.121  1.00  0.00    +0.005 C 
BRANCH  20  21
ATOM     21  C   UNL     1      49.309  54.358  19.619  1.00  0.00    +0.035 C 
BRANCH  21  22
ATOM     22  C   UNL     1      49.041  55.687  20.282  1.00  0.00    -0.048 A 
ATOM     23  C   UNL     1      49.962  56.230  21.186  1.00  0.00    +0.004 A 
ATOM     24  C   UNL     1      47.878  56.409  19.981  1.00  0.00    +0.004 A 
ATOM     25  C   UNL     1      49.721  57.467  21.786  1.00  0.00    +0.000 A 
ATOM     26  C   UNL     1      47.637  57.646  20.582  1.00  0.00    +0.000 A 
ATOM     27  C   UNL     1      48.558  58.173  21.486  1.00  0.00    +0.000 A 
ENDBRANCH  21  22
ENDBRANCH  20  21
ENDBRANCH  19  20
ENDBRANCH   1  19
TORSDOF 9
ENDMDL
MODEL 5
REMARK VINA RESULT:    -7.937      3.272      6.992
REMARK INTER + INTRA:         -12.716
REMARK INTER:                 -12.110
REMARK INTRA:                  -0.606
REMARK UNBOUND:                -1.067
REMARK SMILES C[C@H](O)[C@@H](CCCCc1ccccc1)n1cnc2c(N)ncnc21
REMARK SMILES IDX 5 1 4 2 2 3 1 4 3 5 15 7 16 8 24 9 17 10 23 11 18 12 22 13
REMARK SMILES IDX 19 14 21 15 20 16 6 19 7 20 8 21 9 22 10 23 14 24 11 25
REMARK SMILES IDX 13 26 12 27
REMARK H PARENT 3 6 20 17 20 18
ROOT
ATOM      1  C   UNL     1      50.666  52.526  20.431  1.00  0.00    +0.028 C 
ENDROOT
BRANCH   1   2
ATOM      2  C   UNL     1      51.240  51.169  19.953  1.00  0.00    +0.118 C 
BRANCH   2   3
ATOM      3  C   UNL     1      52.538  51.356  19.126  1.00  0.00    +0.134 C 
ATOM      4  C   UNL     1      52.747  52.789  18.640  1.00  0.00    +0.040 C 
BRANCH   3   5
ATOM      5  O   UNL     1      52.524  50.500  17.979  1.00  0.00    -0.391 OA
ATOM      6  H   UNL     1      51.664  50.044  17.946  1.00  0.00    +0.211 HD
ENDBRANCH   3   5
ENDBRANCH   2   3
BRANCH   2   7
ATOM      7  N   UNL     1      50.252  50.385  19.225  1.00  0.00    -0.309 N 
ATOM      8  C   UNL     1      49.898  49.082  19.466  1.00  0.00    +0.202 A 
ATOM      9  C   UNL     1      49.498  50.828  18.172  1.00  0.00    +0.165 A 
ATOM     10  N   UNL     1      48.968  48.662  18.635  1.00  0.00    -0.231 NA
ATOM     11  N   UNL     1      49.518  52.041  17.597  1.00  0.00    -0.217 NA
ATOM     12  C   UNL     1      48.702  49.748  17.824  1.00  0.00    +0.150 A 
ATOM     13  C   UNL     1      48.638  52.102  16.576  1.00  0.00    +0.226 A 
ATOM     14  C   UNL     1      47.816  49.939  16.752  1.00  0.00    +0.155 A 
ATOM     15  N   UNL     1      47.810  51.136  16.123  1.00  0.00    -0.217 NA
BRANCH  14  16
ATOM     16  N   UNL     1      46.955  48.950  16.290  1.00  0.00    -0.382 N 
ATOM     17  H   UNL     1      47.395  48.350  15.605  1.00  0.00    +0.158 HD
ATOM     18  H   UNL     1      46.414  48.513  17.027  1.00  0.00    +0.158 HD
ENDBRANCH  14  16
ENDBRANCH   2   7
ENDBRANCH   1   2
BRANCH   1  19
ATOM     19  C   UNL     1      50.956  52.807  21.912  1.00  0.00    +0.003 C 
BRANCH  19  20
ATOM     20  C   UNL     1      51.314  54.270  22.190  1.00  0.00    +0.005 C 
BRANCH  20  21
ATOM     21  C   UNL     1      51.286  55.149  20.937  1.00  0.00    +0.035 C 
BRANCH  21  22
ATOM     22  C   UNL     1      50.114  56.098  20.953  1.00  0.00    -0.048 A 
ATOM     23  C   UNL     1      48.996  55.863  20.141  1.00  0.00    +0.004 A 
ATOM     24  C   UNL     1      50.115  57.214  21.800  1.00  0.00    +0.004 A 
ATOM     25  C   UNL     1      47.905  56.733  20.169  1.00  0.00    +0.000 A 
ATOM     26  C   UNL     1      49.024  58.084  21.826  1.00  0.00    +0.000 A 
ATOM     27  C   UNL     1      47.920  57.844  21.010  1.00  0.00    +0.000 A 
ENDBRANCH  21  22
ENDBRANCH  20  21
ENDBRANCH  19  20
ENDBRANCH   1  19
TORSDOF 9
ENDMDL
