MODEL 1
REMARK VINA RESULT:    -8.628      0.000      0.000
REMARK INTER + INTRA:         -14.313
REMARK INTER:                 -13.168
REMARK INTRA:                  -1.145
REMARK UNBOUND:                -1.145
REMARK SMILES C[C@H](O)[C@@H](CCCCCc1ccccc1)n1cnc2c(N)ncnc21
REMARK SMILES IDX 5 1 4 2 2 3 1 4 3 5 16 7 17 8 25 9 18 10 24 11 19 12 23 13
REMARK SMILES IDX 20 14 22 15 21 16 6 19 7 20 8 21 9 22 10 23 11 24 15 25
REMARK SMILES IDX 12 26 14 27 13 28
REMARK H PARENT 3 6 21 17 21 18
ROOT
ATOM      1  C   UNL     1      50.158  51.613  19.422  1.00  0.00    +0.028 C 
ENDROOT
BRANCH   1   2
ATOM      2  C   UNL     1      51.580  51.881  19.971  1.00  0.00    +0.118 C 
BRANCH   2   3
ATOM      3  C   UNL     1      52.243  50.637  20.614  1.00  0.00    +0.134 C 
ATOM      4  C   UNL     1      52.823  49.668  19.583  1.00  0.00    +0.040 C 
BRANCH   3   5
ATOM      5  O   UNL     1      51.265  49.917  21.384  1.00  0.00    -0.391 OA
ATOM      6  H   UNL     1      50.810  49.291  20.795  1.00  0.00    +0.211 HD
ENDBRANCH   3   5
ENDBRANCH   2   3
BRANCH   2   7
ATOM      7  N   UNL     1      51.614  53.103  20.764  1.00  0.00    -0.309 N 
ATOM      8  C   UNL     1      51.585  53.134  22.138  1.00  0.00    +0.202 A 
ATOM      9  C   UNL     1      51.757  54.396  20.333  1.00  0.00    +0.165 A 
ATOM     10  N   UNL     1      51.711  54.354  22.611  1.00  0.00    -0.231 NA
ATOM     11  N   UNL     1      51.819  54.845  19.068  1.00  0.00    -0.217 NA
ATOM     12  C   UNL     1      51.841  55.151  21.492  1.00  0.00    +0.150 A 
ATOM     13  C   UNL     1      51.995  56.180  19.040  1.00  0.00    +0.226 A 
ATOM     14  C   UNL     1      52.032  56.534  21.331  1.00  0.00    +0.155 A 
ATOM     15  N   UNL     1      52.098  57.036  20.079  1.00  0.00    -0.217 NA
BRANCH  14  16
ATOM     16  N   UNL     1      52.145  57.417  22.395  1.00  0.00    -0.382 N 
ATOM     17  H   UNL     1      51.964  56.995  23.301  1.00  0.00    +0.158 HD
ATOM     18  H   UNL     1      51.737  58.320  22.196  1.00  0.00    +0.158 HD
ENDBRANCH  14  16
ENDBRANCH   2   7
ENDBRANCH   1   2
BRANCH   1  19
ATOM     19  C   UNL     1      49.982  51.815  17.912  1.00  0.00    +0.002 C 
BRANCH  19  20
ATOM     20  C   UNL     1      48.855  52.804  17.590  1.00  0.00    +0.000 C 
BRANCH  20  21
ATOM     21  C   UNL     1      47.568  52.145  17.069  1.00  0.00    +0.005 C 
BRANCH  21  22
ATOM     22  C   UNL     1      47.674  50.675  16.627  1.00  0.00    +0.035 C 
BRANCH  22  23
ATOM     23  C   UNL     1      46.832  49.654  17.359  1.00  0.00    -0.048 A 
ATOM     24  C   UNL     1      45.515  49.352  16.985  1.00  0.00    +0.004 A 
ATOM     25  C   UNL     1      47.410  48.939  18.423  1.00  0.00    +0.004 A 
ATOM     26  C   UNL     1      44.778  48.395  17.691  1.00  0.00    +0.000 A 
ATOM     27  C   UNL     1      46.667  47.994  19.138  1.00  0.00    +0.000 A 
ATOM     28  C   UNL     1      45.348  47.723  18.777  1.00  0.00    +0.000 A 
ENDBRANCH  22  23
ENDBRANCH  21  22
ENDBRANCH  20  21
ENDBRANCH  19  20
ENDBRANCH   1  19
TORSDOF 10
ENDMDL
MODEL 2
REMARK VINA RESULT:    -8.517      2.902      6.002
REMARK INTER + INTRA:         -14.143
REMARK INTER:                 -12.931
REMARK INTRA:                  -1.212
REMARK UNBOUND:                -1.145
REMARK SMILES C[C@H](O)[C@@H](CCCCCc1ccccc1)n1cnc2c(N)ncnc21
REMARK SMILES IDX 5 1 4 2 2 3 1 4 3 5 16 7 17 8 25 9 18 10 24 11 19 12 23 13
REMARK SMILES IDX 20 14 22 15 21 16 6 19 7 20 8 21 9 22 10 23 11 24 15 25
REMARK SMILES IDX 12 26 14 27 13 28
REMARK H PARENT 3 6 21 17 21 18
ROOT
ATOM      1  C   UNL     1      47.842  51.233  16.511  1.00  0.00    +0.028 C 
ENDROOT
BRANCH   1   2
ATOM      2  C   UNL     1      49.387  51.131  16.498  1.00  0.00    +0.118 C 
BRANCH   2   3
ATOM      3  C   UNL     1      49.939  50.203  15.387  1.00  0.00    +0.134 C 
ATOM      4  C   UNL     1      49.313  48.808  15.406  1.00  0.00    +0.040 C 
BRANCH   3   5
ATOM      5  O   UNL     1      51.359  50.044  15.558  1.00  0.00    -0.391 OA
ATOM      6  H   UNL     1      51.721  50.874  15.914  1.00  0.00    +0.211 HD
ENDBRANCH   3   5
ENDBRANCH   2   3
BRANCH   2   7
ATOM      7  N   UNL     1      49.909  50.901  17.839  1.00  0.00    -0.309 N 
ATOM      8  C   UNL     1      49.557  49.834  18.632  1.00  0.00    +0.202 A 
ATOM      9  C   UNL     1      50.863  51.612  18.516  1.00  0.00    +0.165 A 
ATOM     10  N   UNL     1      50.231  49.812  19.761  1.00  0.00    -0.231 NA
ATOM     11  N   UNL     1      51.486  52.740  18.131  1.00  0.00    -0.217 NA
ATOM     12  C   UNL     1      51.067  50.907  19.692  1.00  0.00    +0.150 A 
ATOM     13  C   UNL     1      52.389  53.129  19.050  1.00  0.00    +0.226 A 
ATOM     14  C   UNL     1      52.043  51.411  20.568  1.00  0.00    +0.155 A 
ATOM     15  N   UNL     1      52.695  52.544  20.228  1.00  0.00    -0.217 NA
BRANCH  14  16
ATOM     16  N   UNL     1      52.365  50.810  21.777  1.00  0.00    -0.382 N 
ATOM     17  H   UNL     1      52.067  51.338  22.591  1.00  0.00    +0.158 HD
ATOM     18  H   UNL     1      53.293  50.410  21.777  1.00  0.00    +0.158 HD
ENDBRANCH  14  16
ENDBRANCH   2   7
ENDBRANCH   1   2
BRANCH   1  19
ATOM     19  C   UNL     1      47.266  52.479  17.193  1.00  0.00    +0.002 C 
BRANCH  19  20
ATOM     20  C   UNL     1      47.781  53.775  16.554  1.00  0.00    +0.000 C 
BRANCH  20  21
ATOM     21  C   UNL     1      48.638  54.643  17.489  1.00  0.00    +0.005 C 
BRANCH  21  22
ATOM     22  C   UNL     1      48.440  54.433  19.000  1.00  0.00    +0.035 C 
BRANCH  22  23
ATOM     23  C   UNL     1      48.667  55.617  19.914  1.00  0.00    -0.048 A 
ATOM     24  C   UNL     1      49.820  55.757  20.699  1.00  0.00    +0.004 A 
ATOM     25  C   UNL     1      47.710  56.647  19.936  1.00  0.00    +0.004 A 
ATOM     26  C   UNL     1      49.987  56.874  21.525  1.00  0.00    +0.000 A 
ATOM     27  C   UNL     1      47.869  57.755  20.774  1.00  0.00    +0.000 A 
ATOM     28  C   UNL     1      49.006  57.869  21.573  1.00  0.00    +0.000 A 
ENDBRANCH  22  23
ENDBRANCH  21  22
ENDBRANCH  20  21
ENDBRANCH  19  20
ENDBRANCH   1  19
TORSDOF 10
ENDMDL
MODEL 3
REMARK VINA RESULT:    -8.423      2.177      4.088
REMARK INTER + INTRA:         -14.001
REMARK INTER:                 -12.868
REMARK INTRA:                  -1.132
REMARK UNBOUND:                -1.145
REMARK SMILES C[C@H](O)[C@@H](CCCCCc1ccccc1)n1cnc2c(N)ncnc21
REMARK SMILES IDX 5 1 4 2 2 3 1 4 3 5 16 7 17 8 25 9 18 10 24 11 19 12 23 13
REMARK SMILES IDX 20 14 22 15 21 16 6 19 7 20 8 21 9 22 10 23 11 24 15 25
REMARK SMILES IDX 12 26 14 27 13 28
REMARK H PARENT 3 6 21 17 21 18
ROOT
ATOM      1  C   UNL     1      49.969  55.011  20.552  1.00  0.00    +0.028 C 
ENDROOT
BRANCH   1   2
ATOM      2  C   UNL     1      51.480  54.814  20.826  1.00  0.00    +0.118 C 
BRANCH   2   3
ATOM      3  C   UNL     1      52.391  55.732  19.973  1.00  0.00    +0.134 C 
ATOM      4  C   UNL     1      52.605  57.110  20.599  1.00  0.00    +0.040 C 
BRANCH   3   5
ATOM      5  O   UNL     1      51.795  55.931  18.679  1.00  0.00    -0.391 OA
ATOM      6  H   UNL     1      51.709  56.888  18.524  1.00  0.00    +0.211 HD
ENDBRANCH   3   5
ENDBRANCH   2   3
BRANCH   2   7
ATOM      7  N   UNL     1      51.831  53.399  20.837  1.00  0.00    -0.309 N 
ATOM      8  C   UNL     1      51.803  52.605  21.958  1.00  0.00    +0.202 A 
ATOM      9  C   UNL     1      52.164  52.595  19.779  1.00  0.00    +0.165 A 
ATOM     10  N   UNL     1      52.083  51.350  21.685  1.00  0.00    -0.231 NA
ATOM     11  N   UNL     1      52.322  52.944  18.490  1.00  0.00    -0.217 NA
ATOM     12  C   UNL     1      52.290  51.326  20.321  1.00  0.00    +0.150 A 
ATOM     13  C   UNL     1      52.619  51.870  17.734  1.00  0.00    +0.226 A 
ATOM     14  C   UNL     1      52.595  50.286  19.427  1.00  0.00    +0.155 A 
ATOM     15  N   UNL     1      52.767  50.585  18.122  1.00  0.00    -0.217 NA
BRANCH  14  16
ATOM     16  N   UNL     1      52.743  48.963  19.819  1.00  0.00    -0.382 N 
ATOM     17  H   UNL     1      52.313  48.296  19.187  1.00  0.00    +0.158 HD
ATOM     18  H   UNL     1      52.613  48.835  20.814  1.00  0.00    +0.158 HD
ENDBRANCH  14  16
ENDBRANCH   2   7
ENDBRANCH   1   2
BRANCH   1  19
ATOM     19  C   UNL     1      49.274  53.860  19.815  1.00  0.00    +0.002 C 
BRANCH  19  20
ATOM     20  C   UNL     1      48.583  54.331  18.530  1.00  0.00    +0.000 C 
BRANCH  20  21
ATOM     21  C   UNL     1      48.909  53.483  17.291  1.00  0.00    +0.005 C 
BRANCH  21  22
ATOM     22  C   UNL     1      47.802  52.540  16.789  1.00  0.00    +0.035 C 
BRANCH  22  23
ATOM     23  C   UNL     1      47.732  51.151  17.384  1.00  0.00    -0.048 A 
ATOM     24  C   UNL     1      46.579  50.356  17.318  1.00  0.00    +0.004 A 
ATOM     25  C   UNL     1      48.887  50.612  17.979  1.00  0.00    +0.004 A 
ATOM     26  C   UNL     1      46.567  49.074  17.879  1.00  0.00    +0.000 A 
ATOM     27  C   UNL     1      48.868  49.337  18.554  1.00  0.00    +0.000 A 
ATOM     28  C   UNL     1      47.707  48.568  18.509  1.00  0.00    +0.000 A 
ENDBRANCH  22  23
ENDBRANCH  21  22
ENDBRANCH  20  21
ENDBRANCH  19  20
ENDBRANCH   1  19
TORSDOF 10
ENDMDL
MODEL 4
REMARK VINA RESULT:    -8.366      4.571      8.353
REMARK INTER + INTRA:         -13.913
REMARK INTER:                 -12.970
REMARK INTRA:                  -0.942
REMARK UNBOUND:                -1.145
REMARK SMILES C[C@H](O)[C@@H](CCCCCc1ccccc1)n1cnc2c(N)ncnc21
REMARK SMILES IDX 5 1 4 2 2 3 1 4 3 5 16 7 17 8 25 9 18 10 24 11 19 12 23 13
REMARK SMILES IDX 20 14 22 15 21 16 6 19 7 20 8 21 9 22 10 23 11 24 15 25
REMARK SMILES IDX 12 26 14 27 13 28
REMARK H PARENT 3 6 21 17 21 18
ROOT
ATOM      1  C   UNL     1      48.162  51.520  16.018  1.00  0.00    +0.028 C 
ENDROOT
BRANCH   1   2
ATOM      2  C   UNL     1      48.777  50.131  16.311  1.00  0.00    +0.118 C 
BRANCH   2   3
ATOM      3  C   UNL     1      49.326  49.415  15.051  1.00  0.00    +0.134 C 
ATOM      4  C   UNL     1      50.744  49.853  14.684  1.00  0.00    +0.040 C 
BRANCH   3   5
ATOM      5  O   UNL     1      48.477  49.707  13.926  1.00  0.00    -0.391 OA
ATOM      6  H   UNL     1      48.008  50.541  14.103  1.00  0.00    +0.211 HD
ENDBRANCH   3   5
ENDBRANCH   2   3
BRANCH   2   7
ATOM      7  N   UNL     1      47.901  49.338  17.163  1.00  0.00    -0.309 N 
ATOM      8  C   UNL     1      48.135  49.090  18.495  1.00  0.00    +0.202 A 
ATOM      9  C   UNL     1      46.690  48.776  16.854  1.00  0.00    +0.165 A 
ATOM     10  N   UNL     1      47.153  48.421  19.056  1.00  0.00    -0.231 NA
ATOM     11  N   UNL     1      46.065  48.759  15.664  1.00  0.00    -0.217 NA
ATOM     12  C   UNL     1      46.232  48.236  18.045  1.00  0.00    +0.150 A 
ATOM     13  C   UNL     1      44.873  48.139  15.756  1.00  0.00    +0.226 A 
ATOM     14  C   UNL     1      44.969  47.621  18.014  1.00  0.00    +0.155 A 
ATOM     15  N   UNL     1      44.301  47.575  16.841  1.00  0.00    -0.217 NA
BRANCH  14  16
ATOM     16  N   UNL     1      44.375  47.045  19.128  1.00  0.00    -0.382 N 
ATOM     17  H   UNL     1      43.843  47.698  19.695  1.00  0.00    +0.158 HD
ATOM     18  H   UNL     1      44.982  46.386  19.595  1.00  0.00    +0.158 HD
ENDBRANCH  14  16
ENDBRANCH   2   7
ENDBRANCH   1   2
BRANCH   1  19
ATOM     19  C   UNL     1      48.127  52.492  17.203  1.00  0.00    +0.002 C 
BRANCH  19  20
ATOM     20  C   UNL     1      49.456  52.517  17.968  1.00  0.00    +0.000 C 
BRANCH  20  21
ATOM     21  C   UNL     1      49.882  53.912  18.449  1.00  0.00    +0.005 C 
BRANCH  21  22
ATOM     22  C   UNL     1      49.847  54.161  19.967  1.00  0.00    +0.035 C 
BRANCH  22  23
ATOM     23  C   UNL     1      49.390  55.521  20.450  1.00  0.00    -0.048 A 
ATOM     24  C   UNL     1      50.125  56.283  21.369  1.00  0.00    +0.004 A 
ATOM     25  C   UNL     1      48.211  56.067  19.914  1.00  0.00    +0.004 A 
ATOM     26  C   UNL     1      49.664  57.537  21.781  1.00  0.00    +0.000 A 
ATOM     27  C   UNL     1      47.742  57.315  20.339  1.00  0.00    +0.000 A 
ATOM     28  C   UNL     1      48.465  58.050  21.277  1.00  0.00    +0.000 A 
ENDBRANCH  22  23
ENDBRANCH  21  22
ENDBRANCH  20  21
ENDBRANCH  19  20
ENDBRANCH   1  19
TORSDOF 10
ENDMDL
MODEL 5
REMARK VINA RESULT:    -8.338      3.391      7.149
REMARK INTER + INTRA:         -13.870
REMARK INTER:                 -12.673
REMARK INTRA:                  -1.196
REMARK UNBOUND:                -1.145
REMARK SMILES C[C@H](O)[C@@H](CCCCCc1ccccc1)n1cnc2c(N)ncnc21
REMARK SMILES IDX 5 1 4 2 2 3 1 4 3 5 16 7 17 8 25 9 18 10 24 11 19 12 23 13
REMARK SMILES IDX 20 14 22 15 21 16 6 19 7 20 8 21 9 22 10 23 11 24 15 25
REMARK SMILES IDX 12 26 14 27 13 28
REMARK H PARENT 3 6 21 17 21 18
ROOT
ATOM      1  C   UNL     1      50.525  52.494  20.209  1.00  0.00    +0.028 C 
ENDROOT
BRANCH   1   2
ATOM      2  C   UNL     1      51.224  51.185  19.766  1.00  0.00    +0.118 C 
BRANCH   2   3
ATOM      3  C   UNL     1      52.592  51.414  19.077  1.00  0.00    +0.134 C 
ATOM      4  C   UNL     1      52.714  52.796  18.433  1.00  0.00    +0.040 C 
BRANCH   3   5
ATOM      5  O   UNL     1      52.776  50.435  18.040  1.00  0.00    -0.391 OA
ATOM      6  H   UNL     1      51.941  49.949  17.925  1.00  0.00    +0.211 HD
ENDBRANCH   3   5
ENDBRANCH   2   3
BRANCH   2   7
ATOM      7  N   UNL     1      50.296  50.306  19.066  1.00  0.00    -0.309 N 
ATOM      8  C   UNL     1      49.995  49.026  19.466  1.00  0.00    +0.202 A 
ATOM      9  C   UNL     1      49.516  50.584  17.975  1.00  0.00    +0.165 A 
ATOM     10  N   UNL     1      49.069  48.475  18.712  1.00  0.00    -0.231 NA
ATOM     11  N   UNL     1      49.483  51.713  17.246  1.00  0.00    -0.217 NA
ATOM     12  C   UNL     1      48.745  49.448  17.788  1.00  0.00    +0.150 A 
ATOM     13  C   UNL     1      48.563  51.627  16.267  1.00  0.00    +0.226 A 
ATOM     14  C   UNL     1      47.813  49.484  16.737  1.00  0.00    +0.155 A 
ATOM     15  N   UNL     1      47.744  50.595  15.972  1.00  0.00    -0.217 NA
BRANCH  14  16
ATOM     16  N   UNL     1      46.966  48.428  16.433  1.00  0.00    -0.382 N 
ATOM     17  H   UNL     1      46.280  48.643  15.717  1.00  0.00    +0.158 HD
ATOM     18  H   UNL     1      46.661  47.925  17.256  1.00  0.00    +0.158 HD
ENDBRANCH  14  16
ENDBRANCH   2   7
ENDBRANCH   1   2
BRANCH   1  19
ATOM     19  C   UNL     1      50.504  52.755  21.720  1.00  0.00    +0.002 C 
BRANCH  19  20
ATOM     20  C   UNL     1      51.674  53.639  22.169  1.00  0.00    +0.000 C 
BRANCH  20  21
ATOM     21  C   UNL     1      51.892  54.887  21.299  1.00  0.00    +0.005 C 
BRANCH  21  22
ATOM     22  C   UNL     1      51.341  56.215  21.847  1.00  0.00    +0.035 C 
BRANCH  22  23
ATOM     23  C   UNL     1      50.001  56.691  21.331  1.00  0.00    -0.048 A 
ATOM     24  C   UNL     1      49.251  55.969  20.391  1.00  0.00    +0.004 A 
ATOM     25  C   UNL     1      49.457  57.876  21.857  1.00  0.00    +0.004 A 
ATOM     26  C   UNL     1      48.014  56.449  19.950  1.00  0.00    +0.000 A 
ATOM     27  C   UNL     1      48.227  58.364  21.404  1.00  0.00    +0.000 A 
ATOM     28  C   UNL     1      47.505  57.653  20.446  1.00  0.00    +0.000 A 
ENDBRANCH  22  23
ENDBRANCH  21  22
ENDBRANCH  20  21
ENDBRANCH  19  20
ENDBRANCH   1  19
TORSDOF 10
ENDMDL
