MODEL 1
REMARK VINA RESULT:    -8.483      0.000      0.000
REMARK INTER + INTRA:         -12.786
REMARK INTER:                 -11.954
REMARK INTRA:                  -0.832
REMARK UNBOUND:                -0.832
REMARK SMILES C[C@H](O)[C@@H](CCCc1ccccc1)n1cnc2c(N)ncnc21
REMARK SMILES IDX 4 1 2 2 1 3 3 4 5 6 6 7 7 8 8 9 9 10 13 11 10 12 12 13 11 14
REMARK SMILES IDX 14 15 15 16 23 17 16 18 22 19 17 20 21 21 18 22 20 23 19 24
REMARK H PARENT 3 5 19 25 19 26
ROOT
ATOM      1  C   UNL     1      51.323  51.213  19.513  1.00  0.00    +0.118 C 
ENDROOT
BRANCH   1   2
ATOM      2  C   UNL     1      52.589  50.878  18.687  1.00  0.00    +0.134 C 
ATOM      3  C   UNL     1      52.304  50.804  17.186  1.00  0.00    +0.040 C 
BRANCH   2   4
ATOM      4  O   UNL     1      53.093  49.600  19.093  1.00  0.00    -0.391 OA
ATOM      5  H   UNL     1      52.494  49.254  19.779  1.00  0.00    +0.211 HD
ENDBRANCH   2   4
ENDBRANCH   1   2
BRANCH   1   6
ATOM      6  C   UNL     1      50.605  50.005  20.165  1.00  0.00    +0.028 C 
BRANCH   6   7
ATOM      7  C   UNL     1      49.685  49.133  19.302  1.00  0.00    +0.007 C 
BRANCH   7   8
ATOM      8  C   UNL     1      48.830  49.902  18.294  1.00  0.00    +0.035 C 
BRANCH   8   9
ATOM      9  C   UNL     1      47.444  49.313  18.176  1.00  0.00    -0.048 A 
ATOM     10  C   UNL     1      47.067  48.224  18.974  1.00  0.00    +0.004 A 
ATOM     11  C   UNL     1      46.513  49.854  17.281  1.00  0.00    +0.004 A 
ATOM     12  C   UNL     1      45.784  47.684  18.875  1.00  0.00    +0.000 A 
ATOM     13  C   UNL     1      45.230  49.311  17.181  1.00  0.00    +0.000 A 
ATOM     14  C   UNL     1      44.866  48.226  17.977  1.00  0.00    +0.000 A 
ENDBRANCH   8   9
ENDBRANCH   7   8
ENDBRANCH   6   7
ENDBRANCH   1   6
BRANCH   1  15
ATOM     15  N   UNL     1      51.477  52.325  20.444  1.00  0.00    -0.309 N 
ATOM     16  C   UNL     1      51.501  52.199  21.812  1.00  0.00    +0.202 A 
ATOM     17  C   UNL     1      51.614  53.657  20.157  1.00  0.00    +0.165 A 
ATOM     18  N   UNL     1      51.644  53.359  22.416  1.00  0.00    -0.231 NA
ATOM     19  N   UNL     1      51.631  54.250  18.952  1.00  0.00    -0.217 NA
ATOM     20  C   UNL     1      51.729  54.279  21.391  1.00  0.00    +0.150 A 
ATOM     21  C   UNL     1      51.776  55.585  19.070  1.00  0.00    +0.226 A 
ATOM     22  C   UNL     1      51.888  55.674  21.385  1.00  0.00    +0.155 A 
ATOM     23  N   UNL     1      51.895  56.320  20.197  1.00  0.00    -0.217 NA
BRANCH  22  24
ATOM     24  N   UNL     1      52.016  56.431  22.543  1.00  0.00    -0.382 N 
ATOM     25  H   UNL     1      51.141  56.848  22.829  1.00  0.00    +0.158 HD
ATOM     26  H   UNL     1      52.587  55.986  23.253  1.00  0.00    +0.158 HD
ENDBRANCH  22  24
ENDBRANCH   1  15
TORSDOF 8
ENDMDL
MODEL 2
REMARK VINA RESULT:    -8.395      4.338      6.613
REMARK INTER + INTRA:         -12.663
REMARK INTER:                 -11.234
REMARK INTRA:                  -1.429
REMARK UNBOUND:                -0.832
REMARK SMILES C[C@H](O)[C@@H](CCCc1ccccc1)n1cnc2c(N)ncnc21
REMARK SMILES IDX 4 1 2 2 1 3 3 4 5 6 6 7 7 8 8 9 9 10 13 11 10 12 12 13 11 14
REMARK SMILES IDX 14 15 15 16 23 17 16 18 22 19 17 20 21 21 18 22 20 23 19 24
REMARK H PARENT 3 5 19 25 19 26
ROOT
ATOM      1  C   UNL     1      51.846  57.514  21.486  1.00  0.00    +0.118 C 
ENDROOT
BRANCH   1   2
ATOM      2  C   UNL     1      53.110  58.408  21.445  1.00  0.00    +0.134 C 
ATOM      3  C   UNL     1      54.398  57.607  21.646  1.00  0.00    +0.040 C 
BRANCH   2   4
ATOM      4  O   UNL     1      53.038  59.378  22.497  1.00  0.00    -0.391 OA
ATOM      5  H   UNL     1      52.630  58.943  23.267  1.00  0.00    +0.211 HD
ENDBRANCH   2   4
ENDBRANCH   1   2
BRANCH   1   6
ATOM      6  C   UNL     1      50.499  58.243  21.257  1.00  0.00    +0.028 C 
BRANCH   6   7
ATOM      7  C   UNL     1      49.215  57.631  21.828  1.00  0.00    +0.007 C 
BRANCH   7   8
ATOM      8  C   UNL     1      48.027  57.614  20.866  1.00  0.00    +0.035 C 
BRANCH   8   9
ATOM      9  C   UNL     1      48.242  56.638  19.734  1.00  0.00    -0.048 A 
ATOM     10  C   UNL     1      48.282  57.089  18.407  1.00  0.00    +0.004 A 
ATOM     11  C   UNL     1      48.419  55.273  19.992  1.00  0.00    +0.004 A 
ATOM     12  C   UNL     1      48.490  56.192  17.359  1.00  0.00    +0.000 A 
ATOM     13  C   UNL     1      48.626  54.375  18.942  1.00  0.00    +0.000 A 
ATOM     14  C   UNL     1      48.660  54.835  17.626  1.00  0.00    +0.000 A 
ENDBRANCH   8   9
ENDBRANCH   7   8
ENDBRANCH   6   7
ENDBRANCH   1   6
BRANCH   1  15
ATOM     15  N   UNL     1      51.942  56.283  20.710  1.00  0.00    -0.309 N 
ATOM     16  C   UNL     1      52.115  56.233  19.348  1.00  0.00    +0.202 A 
ATOM     17  C   UNL     1      51.874  54.991  21.158  1.00  0.00    +0.165 A 
ATOM     18  N   UNL     1      52.162  54.997  18.898  1.00  0.00    -0.231 NA
ATOM     19  N   UNL     1      51.697  54.557  22.416  1.00  0.00    -0.217 NA
ATOM     20  C   UNL     1      52.025  54.210  20.023  1.00  0.00    +0.150 A 
ATOM     21  C   UNL     1      51.676  53.210  22.466  1.00  0.00    +0.226 A 
ATOM     22  C   UNL     1      51.998  52.817  20.203  1.00  0.00    +0.155 A 
ATOM     23  N   UNL     1      51.805  52.330  21.449  1.00  0.00    -0.217 NA
BRANCH  22  24
ATOM     24  N   UNL     1      52.138  51.912  19.159  1.00  0.00    -0.382 N 
ATOM     25  H   UNL     1      52.842  51.212  19.349  1.00  0.00    +0.158 HD
ATOM     26  H   UNL     1      51.253  51.605  18.772  1.00  0.00    +0.158 HD
ENDBRANCH  22  24
ENDBRANCH   1  15
TORSDOF 8
ENDMDL
MODEL 3
REMARK VINA RESULT:    -7.993      3.441      7.293
REMARK INTER + INTRA:         -12.096
REMARK INTER:                 -11.408
REMARK INTRA:                  -0.688
REMARK UNBOUND:                -0.832
REMARK SMILES C[C@H](O)[C@@H](CCCc1ccccc1)n1cnc2c(N)ncnc21
REMARK SMILES IDX 4 1 2 2 1 3 3 4 5 6 6 7 7 8 8 9 9 10 13 11 10 12 12 13 11 14
REMARK SMILES IDX 14 15 15 16 23 17 16 18 22 19 17 20 21 21 18 22 20 23 19 24
REMARK H PARENT 3 5 19 25 19 26
ROOT
ATOM      1  C   UNL     1      50.344  50.799  19.618  1.00  0.00    +0.118 C 
ENDROOT
BRANCH   1   2
ATOM      2  C   UNL     1      51.314  49.780  20.266  1.00  0.00    +0.134 C 
ATOM      3  C   UNL     1      52.763  49.989  19.822  1.00  0.00    +0.040 C 
BRANCH   2   4
ATOM      4  O   UNL     1      50.934  48.454  19.882  1.00  0.00    -0.391 OA
ATOM      5  H   UNL     1      49.982  48.472  19.673  1.00  0.00    +0.211 HD
ENDBRANCH   2   4
ENDBRANCH   1   2
BRANCH   1   6
ATOM      6  C   UNL     1      50.822  52.272  19.613  1.00  0.00    +0.028 C 
BRANCH   6   7
ATOM      7  C   UNL     1      50.179  53.265  20.589  1.00  0.00    +0.007 C 
BRANCH   7   8
ATOM      8  C   UNL     1      50.908  54.603  20.717  1.00  0.00    +0.035 C 
BRANCH   8   9
ATOM      9  C   UNL     1      49.939  55.756  20.830  1.00  0.00    -0.048 A 
ATOM     10  C   UNL     1      48.747  55.755  20.092  1.00  0.00    +0.004 A 
ATOM     11  C   UNL     1      50.208  56.834  21.683  1.00  0.00    +0.004 A 
ATOM     12  C   UNL     1      47.844  56.814  20.203  1.00  0.00    +0.000 A 
ATOM     13  C   UNL     1      49.305  57.893  21.792  1.00  0.00    +0.000 A 
ATOM     14  C   UNL     1      48.124  57.884  21.051  1.00  0.00    +0.000 A 
ENDBRANCH   8   9
ENDBRANCH   7   8
ENDBRANCH   6   7
ENDBRANCH   1   6
BRANCH   1  15
ATOM     15  N   UNL     1      49.806  50.393  18.325  1.00  0.00    -0.309 N 
ATOM     16  C   UNL     1      50.300  50.806  17.111  1.00  0.00    +0.202 A 
ATOM     17  C   UNL     1      48.746  49.565  18.071  1.00  0.00    +0.165 A 
ATOM     18  N   UNL     1      49.627  50.298  16.102  1.00  0.00    -0.231 NA
ATOM     19  N   UNL     1      47.951  48.939  18.953  1.00  0.00    -0.217 NA
ATOM     20  C   UNL     1      48.659  49.509  16.688  1.00  0.00    +0.150 A 
ATOM     21  C   UNL     1      47.005  48.213  18.324  1.00  0.00    +0.226 A 
ATOM     22  C   UNL     1      47.639  48.708  16.149  1.00  0.00    +0.155 A 
ATOM     23  N   UNL     1      46.801  48.071  16.997  1.00  0.00    -0.217 NA
BRANCH  22  24
ATOM     24  N   UNL     1      47.432  48.556  14.784  1.00  0.00    -0.382 N 
ATOM     25  H   UNL     1      46.580  48.054  14.578  1.00  0.00    +0.158 HD
ATOM     26  H   UNL     1      47.632  49.394  14.250  1.00  0.00    +0.158 HD
ENDBRANCH  22  24
ENDBRANCH   1  15
TORSDOF 8
ENDMDL
MODEL 4
REMARK VINA RESULT:    -7.905      4.128      6.884
REMARK INTER + INTRA:         -11.972
REMARK INTER:                 -11.375
REMARK INTRA:                  -0.597
REMARK UNBOUND:                -0.832
REMARK SMILES C[C@H](O)[C@@H](CCCc1ccccc1)n1cnc2c(N)ncnc21
REMARK SMILES IDX 4 1 2 2 1 3 3 4 5 6 6 7 7 8 8 9 9 10 13 11 10 12 12 13 11 14
REMARK SMILES IDX 14 15 15 16 23 17 16 18 22 19 17 20 21 21 18 22 20 23 19 24
REMARK H PARENT 3 5 19 25 19 26
ROOT
ATOM      1  C   UNL     1      51.547  54.929  20.833  1.00  0.00    +0.118 C 
ENDROOT
BRANCH   1   2
ATOM      2  C   UNL     1      52.619  55.771  20.097  1.00  0.00    +0.134 C 
ATOM      3  C   UNL     1      52.901  57.100  20.800  1.00  0.00    +0.040 C 
BRANCH   2   4
ATOM      4  O   UNL     1      52.158  56.072  18.775  1.00  0.00    -0.391 OA
ATOM      5  H   UNL     1      51.294  55.638  18.662  1.00  0.00    +0.211 HD
ENDBRANCH   2   4
ENDBRANCH   1   2
BRANCH   1   6
ATOM      6  C   UNL     1      50.075  55.260  20.482  1.00  0.00    +0.028 C 
BRANCH   6   7
ATOM      7  C   UNL     1      49.512  56.636  20.856  1.00  0.00    +0.007 C 
BRANCH   7   8
ATOM      8  C   UNL     1      48.004  56.788  20.662  1.00  0.00    +0.035 C 
BRANCH   8   9
ATOM      9  C   UNL     1      47.678  57.856  19.645  1.00  0.00    -0.048 A 
ATOM     10  C   UNL     1      47.268  59.130  20.062  1.00  0.00    +0.004 A 
ATOM     11  C   UNL     1      47.795  57.595  18.274  1.00  0.00    +0.004 A 
ATOM     12  C   UNL     1      46.976  60.122  19.125  1.00  0.00    +0.000 A 
ATOM     13  C   UNL     1      47.501  58.588  17.337  1.00  0.00    +0.000 A 
ATOM     14  C   UNL     1      47.091  59.851  17.763  1.00  0.00    +0.000 A 
ENDBRANCH   8   9
ENDBRANCH   7   8
ENDBRANCH   6   7
ENDBRANCH   1   6
BRANCH   1  15
ATOM     15  N   UNL     1      51.798  53.492  20.843  1.00  0.00    -0.309 N 
ATOM     16  C   UNL     1      51.771  52.704  21.968  1.00  0.00    +0.202 A 
ATOM     17  C   UNL     1      52.104  52.679  19.785  1.00  0.00    +0.165 A 
ATOM     18  N   UNL     1      52.039  51.445  21.699  1.00  0.00    -0.231 NA
ATOM     19  N   UNL     1      52.251  53.016  18.493  1.00  0.00    -0.217 NA
ATOM     20  C   UNL     1      52.237  51.413  20.334  1.00  0.00    +0.150 A 
ATOM     21  C   UNL     1      52.563  51.940  17.743  1.00  0.00    +0.226 A 
ATOM     22  C   UNL     1      52.551  50.368  19.449  1.00  0.00    +0.155 A 
ATOM     23  N   UNL     1      52.727  50.660  18.140  1.00  0.00    -0.217 NA
BRANCH  22  24
ATOM     24  N   UNL     1      52.714  49.050  19.855  1.00  0.00    -0.382 N 
ATOM     25  H   UNL     1      52.639  48.945  20.858  1.00  0.00    +0.158 HD
ATOM     26  H   UNL     1      52.224  48.384  19.268  1.00  0.00    +0.158 HD
ENDBRANCH  22  24
ENDBRANCH   1  15
TORSDOF 8
ENDMDL
MODEL 5
REMARK VINA RESULT:    -7.550      2.265      4.309
REMARK INTER + INTRA:         -11.471
REMARK INTER:                 -10.496
REMARK INTRA:                  -0.975
REMARK UNBOUND:                -0.832
REMARK SMILES C[C@H](O)[C@@H](CCCc1ccccc1)n1cnc2c(N)ncnc21
REMARK SMILES IDX 4 1 2 2 1 3 3 4 5 6 6 7 7 8 8 9 9 10 13 11 10 12 12 13 11 14
REMARK SMILES IDX 14 15 15 16 23 17 16 18 22 19 17 20 21 21 18 22 20 23 19 24
REMARK H PARENT 3 5 19 25 19 26
ROOT
ATOM      1  C   UNL     1      50.715  54.626  20.673  1.00  0.00    +0.118 C 
ENDROOT
BRANCH   1   2
ATOM      2  C   UNL     1      51.850  55.619  21.028  1.00  0.00    +0.134 C 
ATOM      3  C   UNL     1      51.316  56.950  21.560  1.00  0.00    +0.040 C 
BRANCH   2   4
ATOM      4  O   UNL     1      52.616  55.901  19.852  1.00  0.00    -0.391 OA
ATOM      5  H   UNL     1      52.947  56.814  19.931  1.00  0.00    +0.211 HD
ENDBRANCH   2   4
ENDBRANCH   1   2
BRANCH   1   6
ATOM      6  C   UNL     1      49.884  54.977  19.414  1.00  0.00    +0.028 C 
BRANCH   6   7
ATOM      7  C   UNL     1      48.701  54.080  19.031  1.00  0.00    +0.007 C 
BRANCH   7   8
ATOM      8  C   UNL     1      48.768  53.497  17.619  1.00  0.00    +0.035 C 
BRANCH   8   9
ATOM      9  C   UNL     1      48.286  52.066  17.585  1.00  0.00    -0.048 A 
ATOM     10  C   UNL     1      49.144  51.021  17.955  1.00  0.00    +0.004 A 
ATOM     11  C   UNL     1      46.975  51.763  17.199  1.00  0.00    +0.004 A 
ATOM     12  C   UNL     1      48.700  49.698  17.933  1.00  0.00    +0.000 A 
ATOM     13  C   UNL     1      46.531  50.439  17.177  1.00  0.00    +0.000 A 
ATOM     14  C   UNL     1      47.394  49.407  17.543  1.00  0.00    +0.000 A 
ENDBRANCH   8   9
ENDBRANCH   7   8
ENDBRANCH   6   7
ENDBRANCH   1   6
BRANCH   1  15
ATOM     15  N   UNL     1      51.103  53.220  20.699  1.00  0.00    -0.309 N 
ATOM     16  C   UNL     1      50.881  52.370  21.755  1.00  0.00    +0.202 A 
ATOM     17  C   UNL     1      51.742  52.500  19.726  1.00  0.00    +0.165 A 
ATOM     18  N   UNL     1      51.335  51.157  21.521  1.00  0.00    -0.231 NA
ATOM     19  N   UNL     1      52.168  52.923  18.524  1.00  0.00    -0.217 NA
ATOM     20  C   UNL     1      51.865  51.222  20.249  1.00  0.00    +0.150 A 
ATOM     21  C   UNL     1      52.763  51.924  17.842  1.00  0.00    +0.226 A 
ATOM     22  C   UNL     1      52.494  50.263  19.438  1.00  0.00    +0.155 A 
ATOM     23  N   UNL     1      52.955  50.643  18.225  1.00  0.00    -0.217 NA
BRANCH  22  24
ATOM     24  N   UNL     1      52.686  48.944  19.829  1.00  0.00    -0.382 N 
ATOM     25  H   UNL     1      52.212  48.727  20.695  1.00  0.00    +0.158 HD
ATOM     26  H   UNL     1      52.610  48.282  19.065  1.00  0.00    +0.158 HD
ENDBRANCH  22  24
ENDBRANCH   1  15
TORSDOF 8
ENDMDL
