MODEL 1
REMARK VINA RESULT:    -8.101      0.000      0.000
REMARK INTER + INTRA:         -11.211
REMARK INTER:                 -10.468
REMARK INTRA:                  -0.743
REMARK UNBOUND:                -0.743
REMARK SMILES Cc1ccc(C[C@H]([C@H](C)O)n2cnc3c(N)ncnc32)cc1
REMARK SMILES IDX 7 1 8 2 9 3 10 4 6 6 5 7 4 8 21 9 3 10 22 11 2 12 1 13 11 14
REMARK SMILES IDX 12 15 20 16 13 17 19 18 14 19 18 20 15 21 17 22 16 23
REMARK H PARENT 10 5 16 24 16 25
ROOT
ATOM      1  C   UNL     1      51.219  51.187  18.970  1.00  0.00    +0.123 C 
ENDROOT
BRANCH   1   2
ATOM      2  C   UNL     1      52.602  50.898  18.322  1.00  0.00    +0.134 C 
ATOM      3  C   UNL     1      52.542  50.783  16.794  1.00  0.00    +0.040 C 
BRANCH   2   4
ATOM      4  O   UNL     1      53.120  49.665  18.830  1.00  0.00    -0.391 OA
ATOM      5  H   UNL     1      53.130  49.714  19.808  1.00  0.00    +0.211 HD
ENDBRANCH   2   4
ENDBRANCH   1   2
BRANCH   1   6
ATOM      6  C   UNL     1      50.519  49.884  19.423  1.00  0.00    +0.063 C 
BRANCH   6   7
ATOM      7  C   UNL     1      49.151  49.697  18.798  1.00  0.00    -0.046 A 
ATOM      8  C   UNL     1      48.347  48.619  19.200  1.00  0.00    +0.004 A 
ATOM      9  C   UNL     1      48.663  50.587  17.831  1.00  0.00    +0.004 A 
ATOM     10  C   UNL     1      47.070  48.443  18.660  1.00  0.00    +0.004 A 
ATOM     11  C   UNL     1      47.390  50.400  17.279  1.00  0.00    +0.004 A 
ATOM     12  C   UNL     1      46.574  49.342  17.708  1.00  0.00    -0.051 A 
ATOM     13  C   UNL     1      45.213  49.126  17.102  1.00  0.00    +0.044 C 
ENDBRANCH   6   7
ENDBRANCH   1   6
BRANCH   1  14
ATOM     14  N   UNL     1      51.342  52.139  20.075  1.00  0.00    -0.309 N 
ATOM     15  C   UNL     1      51.406  51.829  21.415  1.00  0.00    +0.202 A 
ATOM     16  C   UNL     1      51.495  53.496  19.962  1.00  0.00    +0.165 A 
ATOM     17  N   UNL     1      51.595  52.895  22.164  1.00  0.00    -0.231 NA
ATOM     18  N   UNL     1      51.495  54.242  18.841  1.00  0.00    -0.217 NA
ATOM     19  C   UNL     1      51.669  53.945  21.266  1.00  0.00    +0.150 A 
ATOM     20  C   UNL     1      51.681  55.546  19.125  1.00  0.00    +0.226 A 
ATOM     21  C   UNL     1      51.875  55.326  21.433  1.00  0.00    +0.155 A 
ATOM     22  N   UNL     1      51.868  56.121  20.337  1.00  0.00    -0.217 NA
BRANCH  21  23
ATOM     23  N   UNL     1      52.064  55.935  22.672  1.00  0.00    -0.382 N 
ATOM     24  H   UNL     1      52.570  55.357  23.334  1.00  0.00    +0.158 HD
ATOM     25  H   UNL     1      51.214  56.394  22.971  1.00  0.00    +0.158 HD
ENDBRANCH  21  23
ENDBRANCH   1  14
TORSDOF 6
ENDMDL
MODEL 2
REMARK VINA RESULT:    -7.510      3.016      6.950
REMARK INTER + INTRA:         -10.448
REMARK INTER:                  -9.859
REMARK INTRA:                  -0.590
REMARK UNBOUND:                -0.743
REMARK SMILES Cc1ccc(C[C@H]([C@H](C)O)n2cnc3c(N)ncnc32)cc1
REMARK SMILES IDX 7 1 8 2 9 3 10 4 6 6 5 7 4 8 21 9 3 10 22 11 2 12 1 13 11 14
REMARK SMILES IDX 12 15 20 16 13 17 19 18 14 19 18 20 15 21 17 22 16 23
REMARK H PARENT 10 5 16 24 16 25
ROOT
ATOM      1  C   UNL     1      50.522  50.336  19.216  1.00  0.00    +0.123 C 
ENDROOT
BRANCH   1   2
ATOM      2  C   UNL     1      50.948  48.988  19.861  1.00  0.00    +0.134 C 
ATOM      3  C   UNL     1      50.463  48.828  21.307  1.00  0.00    +0.040 C 
BRANCH   2   4
ATOM      4  O   UNL     1      52.375  48.889  19.867  1.00  0.00    -0.391 OA
ATOM      5  H   UNL     1      52.688  48.983  20.790  1.00  0.00    +0.211 HD
ENDBRANCH   2   4
ENDBRANCH   1   2
BRANCH   1   6
ATOM      6  C   UNL     1      51.732  51.281  19.023  1.00  0.00    +0.063 C 
BRANCH   6   7
ATOM      7  C   UNL     1      51.729  52.455  19.982  1.00  0.00    -0.046 A 
ATOM      8  C   UNL     1      52.033  53.739  19.506  1.00  0.00    +0.004 A 
ATOM      9  C   UNL     1      51.416  52.286  21.338  1.00  0.00    +0.004 A 
ATOM     10  C   UNL     1      52.006  54.841  20.365  1.00  0.00    +0.004 A 
ATOM     11  C   UNL     1      51.408  53.390  22.201  1.00  0.00    +0.004 A 
ATOM     12  C   UNL     1      51.676  54.678  21.715  1.00  0.00    -0.051 A 
ATOM     13  C   UNL     1      51.687  55.863  22.644  1.00  0.00    +0.044 C 
ENDBRANCH   6   7
ENDBRANCH   1   6
BRANCH   1  14
ATOM     14  N   UNL     1      49.807  50.119  17.958  1.00  0.00    -0.309 N 
ATOM     15  C   UNL     1      50.247  50.465  16.700  1.00  0.00    +0.202 A 
ATOM     16  C   UNL     1      48.614  49.462  17.807  1.00  0.00    +0.165 A 
ATOM     17  N   UNL     1      49.418  50.070  15.757  1.00  0.00    -0.231 NA
ATOM     18  N   UNL     1      47.822  48.948  18.767  1.00  0.00    -0.217 NA
ATOM     19  C   UNL     1      48.399  49.426  16.434  1.00  0.00    +0.150 A 
ATOM     20  C   UNL     1      46.729  48.367  18.234  1.00  0.00    +0.226 A 
ATOM     21  C   UNL     1      47.232  48.773  15.999  1.00  0.00    +0.155 A 
ATOM     22  N   UNL     1      46.394  48.252  16.927  1.00  0.00    -0.217 NA
BRANCH  21  23
ATOM     23  N   UNL     1      46.870  48.649  14.659  1.00  0.00    -0.382 N 
ATOM     24  H   UNL     1      47.529  49.079  14.021  1.00  0.00    +0.158 HD
ATOM     25  H   UNL     1      45.882  48.836  14.545  1.00  0.00    +0.158 HD
ENDBRANCH  21  23
ENDBRANCH   1  14
TORSDOF 6
ENDMDL
MODEL 3
REMARK VINA RESULT:    -7.388      1.541      2.194
REMARK INTER + INTRA:         -10.290
REMARK INTER:                 -10.344
REMARK INTRA:                   0.053
REMARK UNBOUND:                -0.743
REMARK SMILES Cc1ccc(C[C@H]([C@H](C)O)n2cnc3c(N)ncnc32)cc1
REMARK SMILES IDX 7 1 8 2 9 3 10 4 6 6 5 7 4 8 21 9 3 10 22 11 2 12 1 13 11 14
REMARK SMILES IDX 12 15 20 16 13 17 19 18 14 19 18 20 15 21 17 22 16 23
REMARK H PARENT 10 5 16 24 16 25
ROOT
ATOM      1  C   UNL     1      50.472  51.313  17.965  1.00  0.00    +0.123 C 
ENDROOT
BRANCH   1   2
ATOM      2  C   UNL     1      52.000  51.128  17.747  1.00  0.00    +0.134 C 
ATOM      3  C   UNL     1      52.674  50.305  18.852  1.00  0.00    +0.040 C 
BRANCH   2   4
ATOM      4  O   UNL     1      52.636  52.409  17.709  1.00  0.00    -0.391 OA
ATOM      5  H   UNL     1      52.612  52.739  16.787  1.00  0.00    +0.211 HD
ENDBRANCH   2   4
ENDBRANCH   1   2
BRANCH   1   6
ATOM      6  C   UNL     1      49.894  50.223  18.899  1.00  0.00    +0.063 C 
BRANCH   6   7
ATOM      7  C   UNL     1      48.529  49.730  18.462  1.00  0.00    -0.046 A 
ATOM      8  C   UNL     1      47.940  48.644  19.127  1.00  0.00    +0.004 A 
ATOM      9  C   UNL     1      47.834  50.344  17.412  1.00  0.00    +0.004 A 
ATOM     10  C   UNL     1      46.669  48.190  18.763  1.00  0.00    +0.004 A 
ATOM     11  C   UNL     1      46.568  49.877  17.036  1.00  0.00    +0.004 A 
ATOM     12  C   UNL     1      45.966  48.814  17.726  1.00  0.00    -0.051 A 
ATOM     13  C   UNL     1      44.614  48.296  17.313  1.00  0.00    +0.044 C 
ENDBRANCH   6   7
ENDBRANCH   1   6
BRANCH   1  14
ATOM     14  N   UNL     1      50.166  52.657  18.458  1.00  0.00    -0.309 N 
ATOM     15  C   UNL     1      49.333  53.575  17.859  1.00  0.00    +0.202 A 
ATOM     16  C   UNL     1      50.593  53.202  19.640  1.00  0.00    +0.165 A 
ATOM     17  N   UNL     1      49.195  54.667  18.582  1.00  0.00    -0.231 NA
ATOM     18  N   UNL     1      51.425  52.663  20.552  1.00  0.00    -0.217 NA
ATOM     19  C   UNL     1      49.966  54.441  19.708  1.00  0.00    +0.150 A 
ATOM     20  C   UNL     1      51.608  53.496  21.594  1.00  0.00    +0.226 A 
ATOM     21  C   UNL     1      50.220  55.211  20.856  1.00  0.00    +0.155 A 
ATOM     22  N   UNL     1      51.062  54.719  21.796  1.00  0.00    -0.217 NA
BRANCH  21  23
ATOM     23  N   UNL     1      49.671  56.473  21.078  1.00  0.00    -0.382 N 
ATOM     24  H   UNL     1      49.290  56.590  22.009  1.00  0.00    +0.158 HD
ATOM     25  H   UNL     1      49.116  56.758  20.281  1.00  0.00    +0.158 HD
ENDBRANCH  21  23
ENDBRANCH   1  14
TORSDOF 6
ENDMDL
MODEL 4
REMARK VINA RESULT:    -7.382      3.332      6.261
REMARK INTER + INTRA:         -10.283
REMARK INTER:                 -10.711
REMARK INTRA:                   0.428
REMARK UNBOUND:                -0.743
REMARK SMILES Cc1ccc(C[C@H]([C@H](C)O)n2cnc3c(N)ncnc32)cc1
REMARK SMILES IDX 7 1 8 2 9 3 10 4 6 6 5 7 4 8 21 9 3 10 22 11 2 12 1 13 11 14
REMARK SMILES IDX 12 15 20 16 13 17 19 18 14 19 18 20 15 21 17 22 16 23
REMARK H PARENT 10 5 16 24 16 25
ROOT
ATOM      1  C   UNL     1      50.350  54.690  20.889  1.00  0.00    +0.123 C 
ENDROOT
BRANCH   1   2
ATOM      2  C   UNL     1      51.417  55.747  20.492  1.00  0.00    +0.134 C 
ATOM      3  C   UNL     1      52.144  55.413  19.184  1.00  0.00    +0.040 C 
BRANCH   2   4
ATOM      4  O   UNL     1      52.402  55.845  21.525  1.00  0.00    -0.391 OA
ATOM      5  H   UNL     1      51.994  56.280  22.302  1.00  0.00    +0.211 HD
ENDBRANCH   2   4
ENDBRANCH   1   2
BRANCH   1   6
ATOM      6  C   UNL     1      49.100  54.773  19.981  1.00  0.00    +0.063 C 
BRANCH   6   7
ATOM      7  C   UNL     1      48.588  56.189  19.803  1.00  0.00    -0.046 A 
ATOM      8  C   UNL     1      48.412  57.007  20.930  1.00  0.00    +0.004 A 
ATOM      9  C   UNL     1      48.297  56.705  18.533  1.00  0.00    +0.004 A 
ATOM     10  C   UNL     1      47.971  58.327  20.790  1.00  0.00    +0.004 A 
ATOM     11  C   UNL     1      47.838  58.022  18.396  1.00  0.00    +0.004 A 
ATOM     12  C   UNL     1      47.697  58.849  19.520  1.00  0.00    -0.051 A 
ATOM     13  C   UNL     1      47.185  60.258  19.378  1.00  0.00    +0.044 C 
ENDBRANCH   6   7
ENDBRANCH   1   6
BRANCH   1  14
ATOM     14  N   UNL     1      50.917  53.341  20.894  1.00  0.00    -0.309 N 
ATOM     15  C   UNL     1      51.679  52.781  21.895  1.00  0.00    +0.202 A 
ATOM     16  C   UNL     1      50.722  52.377  19.941  1.00  0.00    +0.165 A 
ATOM     17  N   UNL     1      51.979  51.523  21.647  1.00  0.00    -0.231 NA
ATOM     18  N   UNL     1      50.040  52.477  18.784  1.00  0.00    -0.217 NA
ATOM     19  C   UNL     1      51.372  51.251  20.434  1.00  0.00    +0.150 A 
ATOM     20  C   UNL     1      50.060  51.314  18.106  1.00  0.00    +0.226 A 
ATOM     21  C   UNL     1      51.304  50.090  19.644  1.00  0.00    +0.155 A 
ATOM     22  N   UNL     1      50.643  50.145  18.464  1.00  0.00    -0.217 NA
BRANCH  21  23
ATOM     23  N   UNL     1      51.901  48.881  19.995  1.00  0.00    -0.382 N 
ATOM     24  H   UNL     1      52.760  48.991  20.522  1.00  0.00    +0.158 HD
ATOM     25  H   UNL     1      51.886  48.242  19.210  1.00  0.00    +0.158 HD
ENDBRANCH  21  23
ENDBRANCH   1  14
TORSDOF 6
ENDMDL
MODEL 5
REMARK VINA RESULT:    -6.708      1.804      2.789
REMARK INTER + INTRA:          -9.412
REMARK INTER:                  -9.214
REMARK INTRA:                  -0.198
REMARK UNBOUND:                -0.743
REMARK SMILES Cc1ccc(C[C@H]([C@H](C)O)n2cnc3c(N)ncnc32)cc1
REMARK SMILES IDX 7 1 8 2 9 3 10 4 6 6 5 7 4 8 21 9 3 10 22 11 2 12 1 13 11 14
REMARK SMILES IDX 12 15 20 16 13 17 19 18 14 19 18 20 15 21 17 22 16 23
REMARK H PARENT 10 5 16 24 16 25
ROOT
ATOM      1  C   UNL     1      49.469  50.943  17.643  1.00  0.00    +0.123 C 
ENDROOT
BRANCH   1   2
ATOM      2  C   UNL     1      50.509  50.886  16.489  1.00  0.00    +0.134 C 
ATOM      3  C   UNL     1      50.056  50.019  15.308  1.00  0.00    +0.040 C 
BRANCH   2   4
ATOM      4  O   UNL     1      51.739  50.346  16.980  1.00  0.00    -0.391 OA
ATOM      5  H   UNL     1      52.432  50.490  16.304  1.00  0.00    +0.211 HD
ENDBRANCH   2   4
ENDBRANCH   1   2
BRANCH   1   6
ATOM      6  C   UNL     1      49.313  49.569  18.337  1.00  0.00    +0.063 C 
BRANCH   6   7
ATOM      7  C   UNL     1      48.142  48.765  17.806  1.00  0.00    -0.046 A 
ATOM      8  C   UNL     1      48.381  47.563  17.124  1.00  0.00    +0.004 A 
ATOM      9  C   UNL     1      46.820  49.193  17.991  1.00  0.00    +0.004 A 
ATOM     10  C   UNL     1      47.317  46.789  16.652  1.00  0.00    +0.004 A 
ATOM     11  C   UNL     1      45.756  48.426  17.501  1.00  0.00    +0.004 A 
ATOM     12  C   UNL     1      45.996  47.205  16.852  1.00  0.00    -0.051 A 
ATOM     13  C   UNL     1      44.855  46.387  16.307  1.00  0.00    +0.044 C 
ENDBRANCH   6   7
ENDBRANCH   1   6
BRANCH   1  14
ATOM     14  N   UNL     1      49.804  51.993  18.606  1.00  0.00    -0.309 N 
ATOM     15  C   UNL     1      49.278  53.265  18.641  1.00  0.00    +0.202 A 
ATOM     16  C   UNL     1      50.638  51.866  19.685  1.00  0.00    +0.165 A 
ATOM     17  N   UNL     1      49.716  53.956  19.672  1.00  0.00    -0.231 NA
ATOM     18  N   UNL     1      51.370  50.796  20.048  1.00  0.00    -0.217 NA
ATOM     19  C   UNL     1      50.556  53.087  20.344  1.00  0.00    +0.150 A 
ATOM     20  C   UNL     1      52.065  51.043  21.176  1.00  0.00    +0.226 A 
ATOM     21  C   UNL     1      51.312  53.217  21.523  1.00  0.00    +0.155 A 
ATOM     22  N   UNL     1      52.078  52.173  21.922  1.00  0.00    -0.217 NA
BRANCH  21  23
ATOM     23  N   UNL     1      51.341  54.373  22.299  1.00  0.00    -0.382 N 
ATOM     24  H   UNL     1      51.607  55.202  21.781  1.00  0.00    +0.158 HD
ATOM     25  H   UNL     1      51.785  54.187  23.189  1.00  0.00    +0.158 HD
ENDBRANCH  21  23
ENDBRANCH   1  14
TORSDOF 6
ENDMDL
