MODEL 1
REMARK VINA RESULT:    -8.611      0.000      0.000
REMARK INTER + INTRA:         -12.978
REMARK INTER:                 -12.135
REMARK INTRA:                  -0.843
REMARK UNBOUND:                -0.843
REMARK SMILES Cc1ccccc1CCC[C@H]([C@H](C)O)n1cnc2c(N)ncnc21
REMARK SMILES IDX 10 1 11 2 12 3 13 4 14 5 15 7 16 8 24 9 17 10 23 11 18 12
REMARK SMILES IDX 22 13 19 14 21 15 20 16 9 19 8 20 7 21 6 22 2 23 5 24 3 25
REMARK SMILES IDX 4 26 1 27
REMARK H PARENT 14 6 20 17 20 18
ROOT
ATOM      1  C   UNL     1      50.879  49.887  20.527  1.00  0.00    +0.028 C 
ENDROOT
BRANCH   1   2
ATOM      2  C   UNL     1      51.315  51.159  19.760  1.00  0.00    +0.118 C 
BRANCH   2   3
ATOM      3  C   UNL     1      52.568  50.964  18.863  1.00  0.00    +0.134 C 
ATOM      4  C   UNL     1      52.379  51.159  17.362  1.00  0.00    +0.040 C 
BRANCH   3   5
ATOM      5  O   UNL     1      53.130  49.666  19.098  1.00  0.00    -0.391 OA
ATOM      6  H   UNL     1      53.366  49.271  18.238  1.00  0.00    +0.211 HD
ENDBRANCH   3   5
ENDBRANCH   2   3
BRANCH   2   7
ATOM      7  N   UNL     1      51.454  52.325  20.636  1.00  0.00    -0.309 N 
ATOM      8  C   UNL     1      51.522  52.271  22.007  1.00  0.00    +0.202 A 
ATOM      9  C   UNL     1      51.532  53.644  20.276  1.00  0.00    +0.165 A 
ATOM     10  N   UNL     1      51.629  53.466  22.545  1.00  0.00    -0.231 NA
ATOM     11  N   UNL     1      51.512  54.168  19.039  1.00  0.00    -0.217 NA
ATOM     12  C   UNL     1      51.631  54.336  21.473  1.00  0.00    +0.150 A 
ATOM     13  C   UNL     1      51.618  55.511  19.083  1.00  0.00    +0.226 A 
ATOM     14  C   UNL     1      51.721  55.735  21.389  1.00  0.00    +0.155 A 
ATOM     15  N   UNL     1      51.726  56.310  20.166  1.00  0.00    -0.217 NA
BRANCH  14  16
ATOM     16  N   UNL     1      51.821  56.559  22.503  1.00  0.00    -0.382 N 
ATOM     17  H   UNL     1      51.714  56.044  23.367  1.00  0.00    +0.158 HD
ATOM     18  H   UNL     1      51.313  57.430  22.405  1.00  0.00    +0.158 HD
ENDBRANCH  14  16
ENDBRANCH   2   7
ENDBRANCH   1   2
BRANCH   1  19
ATOM     19  C   UNL     1      49.819  49.040  19.807  1.00  0.00    +0.007 C 
BRANCH  19  20
ATOM     20  C   UNL     1      49.289  49.655  18.510  1.00  0.00    +0.036 C 
BRANCH  20  21
ATOM     21  C   UNL     1      47.834  49.305  18.282  1.00  0.00    -0.045 A 
ATOM     22  C   UNL     1      47.310  48.171  18.929  1.00  0.00    +0.004 A 
ATOM     23  C   UNL     1      47.000  50.054  17.426  1.00  0.00    -0.048 A 
ATOM     24  C   UNL     1      45.981  47.793  18.748  1.00  0.00    +0.000 A 
ATOM     25  C   UNL     1      45.661  49.663  17.261  1.00  0.00    +0.004 A 
ATOM     26  C   UNL     1      45.155  48.540  17.915  1.00  0.00    +0.000 A 
ATOM     27  C   UNL     1      47.492  51.279  16.706  1.00  0.00    +0.044 C 
ENDBRANCH  20  21
ENDBRANCH  19  20
ENDBRANCH   1  19
TORSDOF 8
ENDMDL
MODEL 2
REMARK VINA RESULT:    -8.324      3.553      7.409
REMARK INTER + INTRA:         -12.573
REMARK INTER:                 -11.881
REMARK INTRA:                  -0.693
REMARK UNBOUND:                -0.843
REMARK SMILES Cc1ccccc1CCC[C@H]([C@H](C)O)n1cnc2c(N)ncnc21
REMARK SMILES IDX 10 1 11 2 12 3 13 4 14 5 15 7 16 8 24 9 17 10 23 11 18 12
REMARK SMILES IDX 22 13 19 14 21 15 20 16 9 19 8 20 7 21 6 22 2 23 5 24 3 25
REMARK SMILES IDX 4 26 1 27
REMARK H PARENT 14 6 20 17 20 18
ROOT
ATOM      1  C   UNL     1      50.705  52.292  18.951  1.00  0.00    +0.028 C 
ENDROOT
BRANCH   1   2
ATOM      2  C   UNL     1      50.157  50.865  19.191  1.00  0.00    +0.118 C 
BRANCH   2   3
ATOM      3  C   UNL     1      51.170  49.897  19.860  1.00  0.00    +0.134 C 
ATOM      4  C   UNL     1      52.637  50.058  19.475  1.00  0.00    +0.040 C 
BRANCH   3   5
ATOM      5  O   UNL     1      50.770  48.541  19.618  1.00  0.00    -0.391 OA
ATOM      6  H   UNL     1      50.039  48.545  18.972  1.00  0.00    +0.211 HD
ENDBRANCH   3   5
ENDBRANCH   2   3
BRANCH   2   7
ATOM      7  N   UNL     1      49.564  50.279  17.986  1.00  0.00    -0.309 N 
ATOM      8  C   UNL     1      50.016  50.496  16.707  1.00  0.00    +0.202 A 
ATOM      9  C   UNL     1      48.484  49.442  17.899  1.00  0.00    +0.165 A 
ATOM     10  N   UNL     1      49.292  49.860  15.811  1.00  0.00    -0.231 NA
ATOM     11  N   UNL     1      47.731  48.957  18.900  1.00  0.00    -0.217 NA
ATOM     12  C   UNL     1      48.326  49.200  16.544  1.00  0.00    +0.150 A 
ATOM     13  C   UNL     1      46.756  48.155  18.425  1.00  0.00    +0.226 A 
ATOM     14  C   UNL     1      47.265  48.359  16.171  1.00  0.00    +0.155 A 
ATOM     15  N   UNL     1      46.489  47.829  17.142  1.00  0.00    -0.217 NA
BRANCH  14  16
ATOM     16  N   UNL     1      46.982  48.031  14.851  1.00  0.00    -0.382 N 
ATOM     17  H   UNL     1      45.989  47.929  14.689  1.00  0.00    +0.158 HD
ATOM     18  H   UNL     1      47.598  47.319  14.474  1.00  0.00    +0.158 HD
ENDBRANCH  14  16
ENDBRANCH   2   7
ENDBRANCH   1   2
BRANCH   1  19
ATOM     19  C   UNL     1      49.834  53.416  19.532  1.00  0.00    +0.007 C 
BRANCH  19  20
ATOM     20  C   UNL     1      50.599  54.445  20.368  1.00  0.00    +0.036 C 
BRANCH  20  21
ATOM     21  C   UNL     1      49.759  55.675  20.640  1.00  0.00    -0.045 A 
ATOM     22  C   UNL     1      48.548  55.827  19.941  1.00  0.00    +0.004 A 
ATOM     23  C   UNL     1      50.162  56.681  21.543  1.00  0.00    -0.048 A 
ATOM     24  C   UNL     1      47.740  56.944  20.142  1.00  0.00    +0.000 A 
ATOM     25  C   UNL     1      49.332  57.798  21.738  1.00  0.00    +0.004 A 
ATOM     26  C   UNL     1      48.131  57.930  21.042  1.00  0.00    +0.000 A 
ATOM     27  C   UNL     1      51.442  56.583  22.327  1.00  0.00    +0.044 C 
ENDBRANCH  20  21
ENDBRANCH  19  20
ENDBRANCH   1  19
TORSDOF 8
ENDMDL
MODEL 3
REMARK VINA RESULT:    -8.320      2.089      2.656
REMARK INTER + INTRA:         -12.569
REMARK INTER:                 -11.204
REMARK INTRA:                  -1.364
REMARK UNBOUND:                -0.843
REMARK SMILES Cc1ccccc1CCC[C@H]([C@H](C)O)n1cnc2c(N)ncnc21
REMARK SMILES IDX 10 1 11 2 12 3 13 4 14 5 15 7 16 8 24 9 17 10 23 11 18 12
REMARK SMILES IDX 22 13 19 14 21 15 20 16 9 19 8 20 7 21 6 22 2 23 5 24 3 25
REMARK SMILES IDX 4 26 1 27
REMARK H PARENT 14 6 20 17 20 18
ROOT
ATOM      1  C   UNL     1      50.221  50.383  18.408  1.00  0.00    +0.028 C 
ENDROOT
BRANCH   1   2
ATOM      2  C   UNL     1      49.610  51.804  18.337  1.00  0.00    +0.118 C 
BRANCH   2   3
ATOM      3  C   UNL     1      48.867  52.113  17.009  1.00  0.00    +0.134 C 
ATOM      4  C   UNL     1      47.351  51.941  17.010  1.00  0.00    +0.040 C 
BRANCH   3   5
ATOM      5  O   UNL     1      49.425  51.323  15.951  1.00  0.00    -0.391 OA
ATOM      6  H   UNL     1      49.455  51.868  15.142  1.00  0.00    +0.211 HD
ENDBRANCH   3   5
ENDBRANCH   2   3
BRANCH   2   7
ATOM      7  N   UNL     1      50.578  52.851  18.671  1.00  0.00    -0.309 N 
ATOM      8  C   UNL     1      51.926  52.782  18.412  1.00  0.00    +0.202 A 
ATOM      9  C   UNL     1      50.344  54.052  19.286  1.00  0.00    +0.165 A 
ATOM     10  N   UNL     1      52.566  53.853  18.830  1.00  0.00    -0.231 NA
ATOM     11  N   UNL     1      49.170  54.547  19.713  1.00  0.00    -0.217 NA
ATOM     12  C   UNL     1      51.588  54.653  19.384  1.00  0.00    +0.150 A 
ATOM     13  C   UNL     1      49.334  55.766  20.265  1.00  0.00    +0.226 A 
ATOM     14  C   UNL     1      51.632  55.919  19.993  1.00  0.00    +0.155 A 
ATOM     15  N   UNL     1      50.475  56.470  20.421  1.00  0.00    -0.217 NA
BRANCH  14  16
ATOM     16  N   UNL     1      52.808  56.639  20.164  1.00  0.00    -0.382 N 
ATOM     17  H   UNL     1      53.527  56.092  20.618  1.00  0.00    +0.158 HD
ATOM     18  H   UNL     1      52.654  57.585  20.494  1.00  0.00    +0.158 HD
ENDBRANCH  14  16
ENDBRANCH   2   7
ENDBRANCH   1   2
BRANCH   1  19
ATOM     19  C   UNL     1      49.237  49.288  18.845  1.00  0.00    +0.007 C 
BRANCH  19  20
ATOM     20  C   UNL     1      48.828  48.321  17.732  1.00  0.00    +0.036 C 
BRANCH  20  21
ATOM     21  C   UNL     1      47.323  48.255  17.577  1.00  0.00    -0.045 A 
ATOM     22  C   UNL     1      46.542  48.036  18.725  1.00  0.00    +0.004 A 
ATOM     23  C   UNL     1      46.686  48.377  16.325  1.00  0.00    -0.048 A 
ATOM     24  C   UNL     1      45.153  47.954  18.642  1.00  0.00    +0.000 A 
ATOM     25  C   UNL     1      45.285  48.299  16.260  1.00  0.00    +0.004 A 
ATOM     26  C   UNL     1      44.524  48.087  17.410  1.00  0.00    +0.000 A 
ATOM     27  C   UNL     1      47.458  48.617  15.056  1.00  0.00    +0.044 C 
ENDBRANCH  20  21
ENDBRANCH  19  20
ENDBRANCH   1  19
TORSDOF 8
ENDMDL
MODEL 4
REMARK VINA RESULT:    -7.794      1.677      2.620
REMARK INTER + INTRA:         -11.826
REMARK INTER:                 -11.536
REMARK INTRA:                  -0.290
REMARK UNBOUND:                -0.843
REMARK SMILES Cc1ccccc1CCC[C@H]([C@H](C)O)n1cnc2c(N)ncnc21
REMARK SMILES IDX 10 1 11 2 12 3 13 4 14 5 15 7 16 8 24 9 17 10 23 11 18 12
REMARK SMILES IDX 22 13 19 14 21 15 20 16 9 19 8 20 7 21 6 22 2 23 5 24 3 25
REMARK SMILES IDX 4 26 1 27
REMARK H PARENT 14 6 20 17 20 18
ROOT
ATOM      1  C   UNL     1      49.452  51.955  18.258  1.00  0.00    +0.028 C 
ENDROOT
BRANCH   1   2
ATOM      2  C   UNL     1      50.850  52.583  18.474  1.00  0.00    +0.118 C 
BRANCH   2   3
ATOM      3  C   UNL     1      52.033  51.650  18.099  1.00  0.00    +0.134 C 
ATOM      4  C   UNL     1      52.563  50.732  19.196  1.00  0.00    +0.040 C 
BRANCH   3   5
ATOM      5  O   UNL     1      53.118  52.434  17.584  1.00  0.00    -0.391 OA
ATOM      6  H   UNL     1      53.050  52.452  16.611  1.00  0.00    +0.211 HD
ENDBRANCH   3   5
ENDBRANCH   2   3
BRANCH   2   7
ATOM      7  N   UNL     1      51.012  53.150  19.815  1.00  0.00    -0.309 N 
ATOM      8  C   UNL     1      50.693  52.500  20.983  1.00  0.00    +0.202 A 
ATOM      9  C   UNL     1      51.486  54.389  20.156  1.00  0.00    +0.165 A 
ATOM     10  N   UNL     1      50.924  53.245  22.043  1.00  0.00    -0.231 NA
ATOM     11  N   UNL     1      51.922  55.361  19.338  1.00  0.00    -0.217 NA
ATOM     12  C   UNL     1      51.415  54.431  21.539  1.00  0.00    +0.150 A 
ATOM     13  C   UNL     1      52.318  56.441  20.042  1.00  0.00    +0.226 A 
ATOM     14  C   UNL     1      51.844  55.618  22.158  1.00  0.00    +0.155 A 
ATOM     15  N   UNL     1      52.311  56.619  21.379  1.00  0.00    -0.217 NA
BRANCH  14  16
ATOM     16  N   UNL     1      51.827  55.807  23.534  1.00  0.00    -0.382 N 
ATOM     17  H   UNL     1      52.140  56.733  23.794  1.00  0.00    +0.158 HD
ATOM     18  H   UNL     1      52.200  55.019  24.051  1.00  0.00    +0.158 HD
ENDBRANCH  14  16
ENDBRANCH   2   7
ENDBRANCH   1   2
BRANCH   1  19
ATOM     19  C   UNL     1      48.446  52.869  17.544  1.00  0.00    +0.007 C 
BRANCH  19  20
ATOM     20  C   UNL     1      47.327  52.129  16.808  1.00  0.00    +0.036 C 
BRANCH  20  21
ATOM     21  C   UNL     1      47.780  50.763  16.335  1.00  0.00    -0.045 A 
ATOM     22  C   UNL     1      48.926  50.683  15.524  1.00  0.00    +0.004 A 
ATOM     23  C   UNL     1      47.081  49.581  16.656  1.00  0.00    -0.048 A 
ATOM     24  C   UNL     1      49.383  49.455  15.050  1.00  0.00    +0.000 A 
ATOM     25  C   UNL     1      47.559  48.351  16.175  1.00  0.00    +0.004 A 
ATOM     26  C   UNL     1      48.701  48.288  15.377  1.00  0.00    +0.000 A 
ATOM     27  C   UNL     1      45.850  49.592  17.522  1.00  0.00    +0.044 C 
ENDBRANCH  20  21
ENDBRANCH  19  20
ENDBRANCH   1  19
TORSDOF 8
ENDMDL
MODEL 5
REMARK VINA RESULT:    -7.174      3.106      6.845
REMARK INTER + INTRA:         -10.953
REMARK INTER:                  -9.989
REMARK INTRA:                  -0.964
REMARK UNBOUND:                -0.843
REMARK SMILES Cc1ccccc1CCC[C@H]([C@H](C)O)n1cnc2c(N)ncnc21
REMARK SMILES IDX 10 1 11 2 12 3 13 4 14 5 15 7 16 8 24 9 17 10 23 11 18 12
REMARK SMILES IDX 22 13 19 14 21 15 20 16 9 19 8 20 7 21 6 22 2 23 5 24 3 25
REMARK SMILES IDX 4 26 1 27
REMARK H PARENT 14 6 20 17 20 18
ROOT
ATOM      1  C   UNL     1      50.519  52.529  20.299  1.00  0.00    +0.028 C 
ENDROOT
BRANCH   1   2
ATOM      2  C   UNL     1      50.499  51.045  19.863  1.00  0.00    +0.118 C 
BRANCH   2   3
ATOM      3  C   UNL     1      51.155  50.072  20.880  1.00  0.00    +0.134 C 
ATOM      4  C   UNL     1      50.257  49.000  21.490  1.00  0.00    +0.040 C 
BRANCH   3   5
ATOM      5  O   UNL     1      51.769  50.823  21.936  1.00  0.00    -0.391 OA
ATOM      6  H   UNL     1      52.737  50.761  21.837  1.00  0.00    +0.211 HD
ENDBRANCH   3   5
ENDBRANCH   2   3
BRANCH   2   7
ATOM      7  N   UNL     1      51.024  50.847  18.509  1.00  0.00    -0.309 N 
ATOM      8  C   UNL     1      52.327  51.069  18.136  1.00  0.00    +0.202 A 
ATOM      9  C   UNL     1      50.347  50.428  17.395  1.00  0.00    +0.165 A 
ATOM     10  N   UNL     1      52.524  50.827  16.858  1.00  0.00    -0.231 NA
ATOM     11  N   UNL     1      49.051  50.091  17.293  1.00  0.00    -0.217 NA
ATOM     12  C   UNL     1      51.291  50.431  16.381  1.00  0.00    +0.150 A 
ATOM     13  C   UNL     1      48.747  49.721  16.032  1.00  0.00    +0.226 A 
ATOM     14  C   UNL     1      50.850  50.039  15.106  1.00  0.00    +0.155 A 
ATOM     15  N   UNL     1      49.558  49.671  14.954  1.00  0.00    -0.217 NA
BRANCH  14  16
ATOM     16  N   UNL     1      51.681  49.997  13.993  1.00  0.00    -0.382 N 
ATOM     17  H   UNL     1      51.278  49.458  13.238  1.00  0.00    +0.158 HD
ATOM     18  H   UNL     1      52.654  49.831  14.226  1.00  0.00    +0.158 HD
ENDBRANCH  14  16
ENDBRANCH   2   7
ENDBRANCH   1   2
BRANCH   1  19
ATOM     19  C   UNL     1      49.775  53.483  19.352  1.00  0.00    +0.007 C 
BRANCH  19  20
ATOM     20  C   UNL     1      50.450  54.843  19.162  1.00  0.00    +0.036 C 
BRANCH  20  21
ATOM     21  C   UNL     1      49.766  55.922  19.975  1.00  0.00    -0.045 A 
ATOM     22  C   UNL     1      48.472  56.324  19.597  1.00  0.00    +0.004 A 
ATOM     23  C   UNL     1      50.388  56.553  21.072  1.00  0.00    -0.048 A 
ATOM     24  C   UNL     1      47.798  57.321  20.300  1.00  0.00    +0.000 A 
ATOM     25  C   UNL     1      49.692  57.550  21.774  1.00  0.00    +0.004 A 
ATOM     26  C   UNL     1      48.407  57.933  21.390  1.00  0.00    +0.000 A 
ATOM     27  C   UNL     1      51.768  56.170  21.534  1.00  0.00    +0.044 C 
ENDBRANCH  20  21
ENDBRANCH  19  20
ENDBRANCH   1  19
TORSDOF 8
ENDMDL
