MODEL 1
REMARK VINA RESULT:    -5.831      0.000      0.000
REMARK INTER + INTRA:          -9.311
REMARK INTER:                  -8.387
REMARK INTRA:                  -0.924
REMARK UNBOUND:                -0.924
REMARK SMILES CCCCCCC(C(C)O)n1cncn1
REMARK SMILES IDX 5 1 4 2 3 3 2 4 1 5 6 6 7 7 8 8 9 9 10 10 11 12 12 13 15 14
REMARK SMILES IDX 13 15 14 16
REMARK H PARENT 10 11
ROOT
ATOM      1  C   UNL     1      49.307  58.283  21.782  1.00  0.00    +0.002 C 
ENDROOT
BRANCH   1   2
ATOM      2  C   UNL     1      48.051  57.746  21.088  1.00  0.00    +0.000 C 
BRANCH   2   3
ATOM      3  C   UNL     1      48.091  57.890  19.564  1.00  0.00    -0.000 C 
BRANCH   3   4
ATOM      4  C   UNL     1      48.430  56.583  18.844  1.00  0.00    -0.003 C 
ATOM      5  C   UNL     1      48.287  55.351  19.724  1.00  0.00    +0.004 C 
ENDBRANCH   3   4
ENDBRANCH   2   3
ENDBRANCH   1   2
BRANCH   1   6
ATOM      6  C   UNL     1      50.346  57.194  22.085  1.00  0.00    +0.030 C 
BRANCH   6   7
ATOM      7  C   UNL     1      51.557  57.244  21.126  1.00  0.00    +0.137 C 
BRANCH   7   8
ATOM      8  C   UNL     1      52.842  57.811  21.777  1.00  0.00    +0.136 C 
ATOM      9  C   UNL     1      53.997  58.082  20.818  1.00  0.00    +0.040 C 
BRANCH   8  10
ATOM     10  O   UNL     1      53.325  56.881  22.758  1.00  0.00    -0.391 OA
ATOM     11  H   UNL     1      52.614  56.244  22.944  1.00  0.00    +0.211 HD
ENDBRANCH   8  10
ENDBRANCH   7   8
BRANCH   7  12
ATOM     12  N   UNL     1      51.820  55.969  20.475  1.00  0.00    -0.247 N 
ATOM     13  C   UNL     1      51.925  55.733  19.138  1.00  0.00    +0.220 A 
ATOM     14  N   UNL     1      51.999  54.835  21.176  1.00  0.00    -0.159 NA
ATOM     15  N   UNL     1      52.175  54.461  18.933  1.00  0.00    -0.224 NA
ATOM     16  C   UNL     1      52.207  53.948  20.199  1.00  0.00    +0.246 A 
ENDBRANCH   7  12
ENDBRANCH   6   7
ENDBRANCH   1   6
TORSDOF 8
ENDMDL
MODEL 2
REMARK VINA RESULT:    -5.771      1.676      3.414
REMARK INTER + INTRA:          -9.226
REMARK INTER:                  -8.338
REMARK INTRA:                  -0.888
REMARK UNBOUND:                -0.924
REMARK SMILES CCCCCCC(C(C)O)n1cncn1
REMARK SMILES IDX 5 1 4 2 3 3 2 4 1 5 6 6 7 7 8 8 9 9 10 10 11 12 12 13 15 14
REMARK SMILES IDX 13 15 14 16
REMARK H PARENT 10 11
ROOT
ATOM      1  C   UNL     1      49.365  54.839  19.184  1.00  0.00    +0.002 C 
ENDROOT
BRANCH   1   2
ATOM      2  C   UNL     1      48.670  55.620  20.305  1.00  0.00    +0.000 C 
BRANCH   2   3
ATOM      3  C   UNL     1      47.885  56.834  19.802  1.00  0.00    -0.000 C 
BRANCH   3   4
ATOM      4  C   UNL     1      48.001  58.050  20.724  1.00  0.00    -0.003 C 
ATOM      5  C   UNL     1      49.110  57.923  21.758  1.00  0.00    +0.004 C 
ENDBRANCH   3   4
ENDBRANCH   2   3
ENDBRANCH   1   2
BRANCH   1   6
ATOM      6  C   UNL     1      50.778  54.368  19.558  1.00  0.00    +0.030 C 
BRANCH   6   7
ATOM      7  C   UNL     1      51.164  54.738  21.008  1.00  0.00    +0.137 C 
BRANCH   7   8
ATOM      8  C   UNL     1      51.698  53.542  21.834  1.00  0.00    +0.136 C 
ATOM      9  C   UNL     1      50.929  52.235  21.668  1.00  0.00    +0.040 C 
BRANCH   8  10
ATOM     10  O   UNL     1      51.657  53.875  23.229  1.00  0.00    -0.391 OA
ATOM     11  H   UNL     1      51.051  54.629  23.341  1.00  0.00    +0.211 HD
ENDBRANCH   8  10
ENDBRANCH   7   8
BRANCH   7  12
ATOM     12  N   UNL     1      52.073  55.872  21.083  1.00  0.00    -0.247 N 
ATOM     13  C   UNL     1      52.680  56.512  20.045  1.00  0.00    +0.220 A 
ATOM     14  N   UNL     1      52.420  56.431  22.256  1.00  0.00    -0.159 NA
ATOM     15  N   UNL     1      53.421  57.492  20.504  1.00  0.00    -0.224 NA
ATOM     16  C   UNL     1      53.239  57.405  21.855  1.00  0.00    +0.246 A 
ENDBRANCH   7  12
ENDBRANCH   6   7
ENDBRANCH   1   6
TORSDOF 8
ENDMDL
MODEL 3
REMARK VINA RESULT:    -5.665      1.825      3.339
REMARK INTER + INTRA:          -9.073
REMARK INTER:                  -8.568
REMARK INTRA:                  -0.505
REMARK UNBOUND:                -0.924
REMARK SMILES CCCCCCC(C(C)O)n1cncn1
REMARK SMILES IDX 5 1 4 2 3 3 2 4 1 5 6 6 7 7 8 8 9 9 10 10 11 12 12 13 15 14
REMARK SMILES IDX 13 15 14 16
REMARK H PARENT 10 11
ROOT
ATOM      1  C   UNL     1      48.846  56.120  20.404  1.00  0.00    +0.002 C 
ENDROOT
BRANCH   1   2
ATOM      2  C   UNL     1      48.671  57.513  21.017  1.00  0.00    +0.000 C 
BRANCH   2   3
ATOM      3  C   UNL     1      47.380  58.211  20.579  1.00  0.00    -0.000 C 
BRANCH   3   4
ATOM      4  C   UNL     1      47.525  58.971  19.258  1.00  0.00    -0.003 C 
ATOM      5  C   UNL     1      47.057  60.417  19.337  1.00  0.00    +0.004 C 
ENDBRANCH   3   4
ENDBRANCH   2   3
ENDBRANCH   1   2
BRANCH   1   6
ATOM      6  C   UNL     1      50.316  55.738  20.175  1.00  0.00    +0.030 C 
BRANCH   6   7
ATOM      7  C   UNL     1      51.175  55.885  21.451  1.00  0.00    +0.137 C 
BRANCH   7   8
ATOM      8  C   UNL     1      51.694  54.538  22.010  1.00  0.00    +0.136 C 
ATOM      9  C   UNL     1      50.931  53.300  21.551  1.00  0.00    +0.040 C 
BRANCH   8  10
ATOM     10  O   UNL     1      51.623  54.563  23.443  1.00  0.00    -0.391 OA
ATOM     11  H   UNL     1      52.289  53.944  23.789  1.00  0.00    +0.211 HD
ENDBRANCH   8  10
ENDBRANCH   7   8
BRANCH   7  12
ATOM     12  N   UNL     1      52.262  56.841  21.298  1.00  0.00    -0.247 N 
ATOM     13  C   UNL     1      52.312  58.115  21.776  1.00  0.00    +0.220 A 
ATOM     14  N   UNL     1      53.390  56.536  20.632  1.00  0.00    -0.159 NA
ATOM     15  N   UNL     1      53.457  58.666  21.445  1.00  0.00    -0.224 NA
ATOM     16  C   UNL     1      54.081  57.673  20.745  1.00  0.00    +0.246 A 
ENDBRANCH   7  12
ENDBRANCH   6   7
ENDBRANCH   1   6
TORSDOF 8
ENDMDL
MODEL 4
REMARK VINA RESULT:    -5.595      1.401      2.079
REMARK INTER + INTRA:          -8.973
REMARK INTER:                  -8.382
REMARK INTRA:                  -0.590
REMARK UNBOUND:                -0.924
REMARK SMILES CCCCCCC(C(C)O)n1cncn1
REMARK SMILES IDX 5 1 4 2 3 3 2 4 1 5 6 6 7 7 8 8 9 9 10 10 11 12 12 13 15 14
REMARK SMILES IDX 13 15 14 16
REMARK H PARENT 10 11
ROOT
ATOM      1  C   UNL     1      48.942  56.924  20.873  1.00  0.00    +0.002 C 
ENDROOT
BRANCH   1   2
ATOM      2  C   UNL     1      47.921  58.066  20.850  1.00  0.00    +0.000 C 
BRANCH   2   3
ATOM      3  C   UNL     1      47.789  58.734  19.479  1.00  0.00    -0.000 C 
BRANCH   3   4
ATOM      4  C   UNL     1      47.249  60.165  19.556  1.00  0.00    -0.003 C 
ATOM      5  C   UNL     1      46.130  60.444  18.564  1.00  0.00    +0.004 C 
ENDBRANCH   3   4
ENDBRANCH   2   3
ENDBRANCH   1   2
BRANCH   1   6
ATOM      6  C   UNL     1      50.167  57.222  21.750  1.00  0.00    +0.030 C 
BRANCH   6   7
ATOM      7  C   UNL     1      51.487  56.733  21.113  1.00  0.00    +0.137 C 
BRANCH   7   8
ATOM      8  C   UNL     1      52.743  57.468  21.642  1.00  0.00    +0.136 C 
ATOM      9  C   UNL     1      53.896  57.594  20.651  1.00  0.00    +0.040 C 
BRANCH   8  10
ATOM     10  O   UNL     1      53.253  56.768  22.787  1.00  0.00    -0.391 OA
ATOM     11  H   UNL     1      52.936  57.226  23.585  1.00  0.00    +0.211 HD
ENDBRANCH   8  10
ENDBRANCH   7   8
BRANCH   7  12
ATOM     12  N   UNL     1      51.656  55.289  21.191  1.00  0.00    -0.247 N 
ATOM     13  C   UNL     1      51.973  54.441  20.174  1.00  0.00    +0.220 A 
ATOM     14  N   UNL     1      51.509  54.616  22.346  1.00  0.00    -0.159 NA
ATOM     15  N   UNL     1      52.045  53.212  20.632  1.00  0.00    -0.224 NA
ATOM     16  C   UNL     1      51.751  53.362  21.957  1.00  0.00    +0.246 A 
ENDBRANCH   7  12
ENDBRANCH   6   7
ENDBRANCH   1   6
TORSDOF 8
ENDMDL
MODEL 5
REMARK VINA RESULT:    -5.467      3.136      4.652
REMARK INTER + INTRA:          -8.789
REMARK INTER:                  -7.981
REMARK INTRA:                  -0.808
REMARK UNBOUND:                -0.924
REMARK SMILES CCCCCCC(C(C)O)n1cncn1
REMARK SMILES IDX 5 1 4 2 3 3 2 4 1 5 6 6 7 7 8 8 9 9 10 10 11 12 12 13 15 14
REMARK SMILES IDX 13 15 14 16
REMARK H PARENT 10 11
ROOT
ATOM      1  C   UNL     1      51.961  54.908  21.105  1.00  0.00    +0.002 C 
ENDROOT
BRANCH   1   2
ATOM      2  C   UNL     1      51.200  56.050  21.787  1.00  0.00    +0.000 C 
BRANCH   2   3
ATOM      3  C   UNL     1      49.825  56.318  21.168  1.00  0.00    -0.000 C 
BRANCH   3   4
ATOM      4  C   UNL     1      49.207  57.642  21.624  1.00  0.00    -0.003 C 
ATOM      5  C   UNL     1      47.905  57.979  20.914  1.00  0.00    +0.004 C 
ENDBRANCH   3   4
ENDBRANCH   2   3
ENDBRANCH   1   2
BRANCH   1   6
ATOM      6  C   UNL     1      51.448  53.516  21.498  1.00  0.00    +0.030 C 
BRANCH   6   7
ATOM      7  C   UNL     1      50.850  52.742  20.301  1.00  0.00    +0.137 C 
BRANCH   7   8
ATOM      8  C   UNL     1      50.893  53.529  18.968  1.00  0.00    +0.136 C 
ATOM      9  C   UNL     1      49.553  53.684  18.255  1.00  0.00    +0.040 C 
BRANCH   8  10
ATOM     10  O   UNL     1      51.776  52.862  18.054  1.00  0.00    -0.391 OA
ATOM     11  H   UNL     1      52.104  53.521  17.418  1.00  0.00    +0.211 HD
ENDBRANCH   8  10
ENDBRANCH   7   8
BRANCH   7  12
ATOM     12  N   UNL     1      51.420  51.413  20.141  1.00  0.00    -0.247 N 
ATOM     13  C   UNL     1      50.744  50.238  20.006  1.00  0.00    +0.220 A 
ATOM     14  N   UNL     1      52.748  51.206  20.106  1.00  0.00    -0.159 NA
ATOM     15  N   UNL     1      51.599  49.250  19.876  1.00  0.00    -0.224 NA
ATOM     16  C   UNL     1      52.808  49.882  19.948  1.00  0.00    +0.246 A 
ENDBRANCH   7  12
ENDBRANCH   6   7
ENDBRANCH   1   6
TORSDOF 8
ENDMDL
