MODEL 1
REMARK VINA RESULT:    -6.026      0.000      0.000
REMARK INTER + INTRA:          -9.415
REMARK INTER:                  -8.668
REMARK INTRA:                  -0.747
REMARK UNBOUND:                -0.747
REMARK SMILES CCCCCCC(C(C)O)n1cnnn1
REMARK SMILES IDX 5 1 4 2 3 3 2 4 1 5 6 6 7 7 8 8 9 9 10 10 11 12 12 13 15 14
REMARK SMILES IDX 13 15 14 16
REMARK H PARENT 10 11
ROOT
ATOM      1  C   UNL     1      49.052  54.626  19.382  1.00  0.00    +0.002 C 
ENDROOT
BRANCH   1   2
ATOM      2  C   UNL     1      48.474  56.029  19.590  1.00  0.00    +0.000 C 
BRANCH   2   3
ATOM      3  C   UNL     1      48.878  56.664  20.923  1.00  0.00    -0.000 C 
BRANCH   3   4
ATOM      4  C   UNL     1      48.414  58.106  21.140  1.00  0.00    -0.003 C 
ATOM      5  C   UNL     1      47.470  58.611  20.060  1.00  0.00    +0.004 C 
ENDBRANCH   3   4
ENDBRANCH   2   3
ENDBRANCH   1   2
BRANCH   1   6
ATOM      6  C   UNL     1      49.789  54.144  20.637  1.00  0.00    +0.030 C 
BRANCH   6   7
ATOM      7  C   UNL     1      51.309  53.931  20.428  1.00  0.00    +0.139 C 
BRANCH   7   8
ATOM      8  C   UNL     1      51.852  52.634  21.077  1.00  0.00    +0.136 C 
ATOM      9  C   UNL     1      51.207  51.364  20.522  1.00  0.00    +0.040 C 
BRANCH   8  10
ATOM     10  O   UNL     1      51.655  52.640  22.491  1.00  0.00    -0.391 OA
ATOM     11  H   UNL     1      52.525  52.624  22.929  1.00  0.00    +0.211 HD
ENDBRANCH   8  10
ENDBRANCH   7   8
BRANCH   7  12
ATOM     12  N   UNL     1      52.043  55.091  20.913  1.00  0.00    -0.227 N 
ATOM     13  C   UNL     1      52.762  56.009  20.216  1.00  0.00    +0.246 A 
ATOM     14  N   UNL     1      52.059  55.399  22.219  1.00  0.00    -0.045 NA
ATOM     15  N   UNL     1      53.230  56.897  21.062  1.00  0.00    -0.117 NA
ATOM     16  N   UNL     1      52.787  56.505  22.303  1.00  0.00    -0.024 NA
ENDBRANCH   7  12
ENDBRANCH   6   7
ENDBRANCH   1   6
TORSDOF 8
ENDMDL
MODEL 2
REMARK VINA RESULT:    -5.891      1.658      2.536
REMARK INTER + INTRA:          -9.221
REMARK INTER:                  -8.499
REMARK INTRA:                  -0.722
REMARK UNBOUND:                -0.747
REMARK SMILES CCCCCCC(C(C)O)n1cnnn1
REMARK SMILES IDX 5 1 4 2 3 3 2 4 1 5 6 6 7 7 8 8 9 9 10 10 11 12 12 13 15 14
REMARK SMILES IDX 13 15 14 16
REMARK H PARENT 10 11
ROOT
ATOM      1  C   UNL     1      49.029  57.838  21.382  1.00  0.00    +0.002 C 
ENDROOT
BRANCH   1   2
ATOM      2  C   UNL     1      48.322  57.131  20.222  1.00  0.00    +0.000 C 
BRANCH   2   3
ATOM      3  C   UNL     1      47.641  58.095  19.245  1.00  0.00    -0.000 C 
BRANCH   3   4
ATOM      4  C   UNL     1      47.412  59.515  19.765  1.00  0.00    -0.003 C 
ATOM      5  C   UNL     1      46.507  60.352  18.875  1.00  0.00    +0.004 C 
ENDBRANCH   3   4
ENDBRANCH   2   3
ENDBRANCH   1   2
BRANCH   1   6
ATOM      6  C   UNL     1      50.126  56.948  21.981  1.00  0.00    +0.030 C 
BRANCH   6   7
ATOM      7  C   UNL     1      51.194  56.495  20.956  1.00  0.00    +0.139 C 
BRANCH   7   8
ATOM      8  C   UNL     1      51.451  54.968  20.957  1.00  0.00    +0.136 C 
ATOM      9  C   UNL     1      50.195  54.144  20.675  1.00  0.00    +0.040 C 
BRANCH   8  10
ATOM     10  O   UNL     1      51.986  54.533  22.206  1.00  0.00    -0.391 OA
ATOM     11  H   UNL     1      51.424  54.875  22.925  1.00  0.00    +0.211 HD
ENDBRANCH   8  10
ENDBRANCH   7   8
BRANCH   7  12
ATOM     12  N   UNL     1      52.436  57.223  21.182  1.00  0.00    -0.227 N 
ATOM     13  C   UNL     1      52.637  58.410  21.810  1.00  0.00    +0.246 A 
ATOM     14  N   UNL     1      53.611  56.725  20.765  1.00  0.00    -0.045 NA
ATOM     15  N   UNL     1      53.923  58.670  21.801  1.00  0.00    -0.117 NA
ATOM     16  N   UNL     1      54.516  57.615  21.148  1.00  0.00    -0.024 NA
ENDBRANCH   7  12
ENDBRANCH   6   7
ENDBRANCH   1   6
TORSDOF 8
ENDMDL
MODEL 3
REMARK VINA RESULT:    -5.572      2.482      3.625
REMARK INTER + INTRA:          -8.763
REMARK INTER:                  -7.755
REMARK INTRA:                  -1.008
REMARK UNBOUND:                -0.747
REMARK SMILES CCCCCCC(C(C)O)n1cnnn1
REMARK SMILES IDX 5 1 4 2 3 3 2 4 1 5 6 6 7 7 8 8 9 9 10 10 11 12 12 13 15 14
REMARK SMILES IDX 13 15 14 16
REMARK H PARENT 10 11
ROOT
ATOM      1  C   UNL     1      52.041  56.197  22.003  1.00  0.00    +0.002 C 
ENDROOT
BRANCH   1   2
ATOM      2  C   UNL     1      51.264  57.473  21.662  1.00  0.00    +0.000 C 
BRANCH   2   3
ATOM      3  C   UNL     1      49.744  57.303  21.748  1.00  0.00    -0.000 C 
BRANCH   3   4
ATOM      4  C   UNL     1      48.941  57.925  20.604  1.00  0.00    -0.003 C 
ATOM      5  C   UNL     1      47.472  57.533  20.607  1.00  0.00    +0.004 C 
ENDBRANCH   3   4
ENDBRANCH   2   3
ENDBRANCH   1   2
BRANCH   1   6
ATOM      6  C   UNL     1      51.243  54.947  21.612  1.00  0.00    +0.030 C 
BRANCH   6   7
ATOM      7  C   UNL     1      51.737  54.272  20.309  1.00  0.00    +0.139 C 
BRANCH   7   8
ATOM      8  C   UNL     1      50.768  54.440  19.113  1.00  0.00    +0.136 C 
ATOM      9  C   UNL     1      49.295  54.339  19.510  1.00  0.00    +0.040 C 
BRANCH   8  10
ATOM     10  O   UNL     1      51.015  53.462  18.103  1.00  0.00    -0.391 OA
ATOM     11  H   UNL     1      51.245  52.618  18.533  1.00  0.00    +0.211 HD
ENDBRANCH   8  10
ENDBRANCH   7   8
BRANCH   7  12
ATOM     12  N   UNL     1      52.006  52.861  20.554  1.00  0.00    -0.227 N 
ATOM     13  C   UNL     1      51.493  52.039  21.505  1.00  0.00    +0.246 A 
ATOM     14  N   UNL     1      52.854  52.176  19.771  1.00  0.00    -0.045 NA
ATOM     15  N   UNL     1      52.000  50.840  21.334  1.00  0.00    -0.117 NA
ATOM     16  N   UNL     1      52.845  50.940  20.253  1.00  0.00    -0.024 NA
ENDBRANCH   7  12
ENDBRANCH   6   7
ENDBRANCH   1   6
TORSDOF 8
ENDMDL
MODEL 4
REMARK VINA RESULT:    -5.542      2.096      3.046
REMARK INTER + INTRA:          -8.719
REMARK INTER:                  -7.825
REMARK INTRA:                  -0.894
REMARK UNBOUND:                -0.747
REMARK SMILES CCCCCCC(C(C)O)n1cnnn1
REMARK SMILES IDX 5 1 4 2 3 3 2 4 1 5 6 6 7 7 8 8 9 9 10 10 11 12 12 13 15 14
REMARK SMILES IDX 13 15 14 16
REMARK H PARENT 10 11
ROOT
ATOM      1  C   UNL     1      48.916  54.647  18.795  1.00  0.00    +0.002 C 
ENDROOT
BRANCH   1   2
ATOM      2  C   UNL     1      48.159  55.468  19.843  1.00  0.00    +0.000 C 
BRANCH   2   3
ATOM      3  C   UNL     1      48.289  56.981  19.643  1.00  0.00    -0.000 C 
BRANCH   3   4
ATOM      4  C   UNL     1      47.833  57.847  20.819  1.00  0.00    -0.003 C 
ATOM      5  C   UNL     1      48.937  58.147  21.820  1.00  0.00    +0.004 C 
ENDBRANCH   3   4
ENDBRANCH   2   3
ENDBRANCH   1   2
BRANCH   1   6
ATOM      6  C   UNL     1      50.404  54.539  19.151  1.00  0.00    +0.030 C 
BRANCH   6   7
ATOM      7  C   UNL     1      50.668  54.153  20.627  1.00  0.00    +0.139 C 
BRANCH   7   8
ATOM      8  C   UNL     1      51.344  55.274  21.454  1.00  0.00    +0.136 C 
ATOM      9  C   UNL     1      52.370  56.079  20.656  1.00  0.00    +0.040 C 
BRANCH   8  10
ATOM     10  O   UNL     1      52.005  54.746  22.603  1.00  0.00    -0.391 OA
ATOM     11  H   UNL     1      51.929  55.387  23.332  1.00  0.00    +0.211 HD
ENDBRANCH   8  10
ENDBRANCH   7   8
BRANCH   7  12
ATOM     12  N   UNL     1      51.457  52.929  20.685  1.00  0.00    -0.227 N 
ATOM     13  C   UNL     1      52.336  52.427  19.779  1.00  0.00    +0.246 A 
ATOM     14  N   UNL     1      51.394  52.119  21.754  1.00  0.00    -0.045 NA
ATOM     15  N   UNL     1      52.834  51.312  20.261  1.00  0.00    -0.117 NA
ATOM     16  N   UNL     1      52.240  51.133  21.487  1.00  0.00    -0.024 NA
ENDBRANCH   7  12
ENDBRANCH   6   7
ENDBRANCH   1   6
TORSDOF 8
ENDMDL
MODEL 5
REMARK VINA RESULT:    -5.344      1.494      1.835
REMARK INTER + INTRA:          -8.434
REMARK INTER:                  -7.644
REMARK INTRA:                  -0.790
REMARK UNBOUND:                -0.747
REMARK SMILES CCCCCCC(C(C)O)n1cnnn1
REMARK SMILES IDX 5 1 4 2 3 3 2 4 1 5 6 6 7 7 8 8 9 9 10 10 11 12 12 13 15 14
REMARK SMILES IDX 13 15 14 16
REMARK H PARENT 10 11
ROOT
ATOM      1  C   UNL     1      48.570  54.840  19.565  1.00  0.00    +0.002 C 
ENDROOT
BRANCH   1   2
ATOM      2  C   UNL     1      47.608  55.995  19.859  1.00  0.00    +0.000 C 
BRANCH   2   3
ATOM      3  C   UNL     1      48.278  57.371  19.823  1.00  0.00    -0.000 C 
BRANCH   3   4
ATOM      4  C   UNL     1      47.976  58.288  21.010  1.00  0.00    -0.003 C 
ATOM      5  C   UNL     1      49.055  58.275  22.080  1.00  0.00    +0.004 C 
ENDBRANCH   3   4
ENDBRANCH   2   3
ENDBRANCH   1   2
BRANCH   1   6
ATOM      6  C   UNL     1      49.774  54.872  20.515  1.00  0.00    +0.030 C 
BRANCH   6   7
ATOM      7  C   UNL     1      51.137  54.999  19.792  1.00  0.00    +0.139 C 
BRANCH   7   8
ATOM      8  C   UNL     1      51.796  53.638  19.459  1.00  0.00    +0.136 C 
ATOM      9  C   UNL     1      52.006  52.751  20.686  1.00  0.00    +0.040 C 
BRANCH   8  10
ATOM     10  O   UNL     1      53.064  53.815  18.828  1.00  0.00    -0.391 OA
ATOM     11  H   UNL     1      53.712  53.226  19.255  1.00  0.00    +0.211 HD
ENDBRANCH   8  10
ENDBRANCH   7   8
BRANCH   7  12
ATOM     12  N   UNL     1      52.041  55.824  20.583  1.00  0.00    -0.227 N 
ATOM     13  C   UNL     1      52.010  56.106  21.911  1.00  0.00    +0.246 A 
ATOM     14  N   UNL     1      53.103  56.420  20.017  1.00  0.00    -0.045 NA
ATOM     15  N   UNL     1      53.039  56.870  22.196  1.00  0.00    -0.117 NA
ATOM     16  N   UNL     1      53.709  57.057  21.010  1.00  0.00    -0.024 NA
ENDBRANCH   7  12
ENDBRANCH   6   7
ENDBRANCH   1   6
TORSDOF 8
ENDMDL
