MODEL 1
REMARK VINA RESULT:    -5.759      0.000      0.000
REMARK INTER + INTRA:          -8.886
REMARK INTER:                  -8.283
REMARK INTRA:                  -0.603
REMARK UNBOUND:                -0.603
REMARK SMILES CCCCCCC(C(C)O)n1ccnc1
REMARK SMILES IDX 5 1 4 2 3 3 2 4 1 5 6 6 7 7 8 8 9 9 10 10 11 12 12 13 15 14
REMARK SMILES IDX 13 15 14 16
REMARK H PARENT 10 11
ROOT
ATOM      1  C   UNL     1      48.546  54.751  19.528  1.00  0.00    +0.002 C 
ENDROOT
BRANCH   1   2
ATOM      2  C   UNL     1      48.560  56.275  19.405  1.00  0.00    +0.000 C 
BRANCH   2   3
ATOM      3  C   UNL     1      47.564  57.046  20.279  1.00  0.00    -0.000 C 
BRANCH   3   4
ATOM      4  C   UNL     1      48.108  58.344  20.885  1.00  0.00    -0.003 C 
ATOM      5  C   UNL     1      49.181  58.124  21.942  1.00  0.00    +0.004 C 
ENDBRANCH   3   4
ENDBRANCH   2   3
ENDBRANCH   1   2
BRANCH   1   6
ATOM      6  C   UNL     1      49.947  54.125  19.496  1.00  0.00    +0.028 C 
BRANCH   6   7
ATOM      7  C   UNL     1      50.622  54.109  20.887  1.00  0.00    +0.116 C 
BRANCH   7   8
ATOM      8  C   UNL     1      51.276  52.749  21.241  1.00  0.00    +0.134 C 
ATOM      9  C   UNL     1      51.018  51.626  20.243  1.00  0.00    +0.040 C 
BRANCH   8  10
ATOM     10  O   UNL     1      50.787  52.299  22.512  1.00  0.00    -0.391 OA
ATOM     11  H   UNL     1      51.294  51.508  22.766  1.00  0.00    +0.211 HD
ENDBRANCH   8  10
ENDBRANCH   7   8
BRANCH   7  12
ATOM     12  N   UNL     1      51.547  55.215  21.108  1.00  0.00    -0.332 N 
ATOM     13  C   UNL     1      52.256  55.916  20.172  1.00  0.00    +0.107 A 
ATOM     14  C   UNL     1      51.862  55.739  22.331  1.00  0.00    +0.199 A 
ATOM     15  C   UNL     1      52.981  56.838  20.889  1.00  0.00    +0.130 A 
ATOM     16  N   UNL     1      52.731  56.717  22.230  1.00  0.00    -0.245 NA
ENDBRANCH   7  12
ENDBRANCH   6   7
ENDBRANCH   1   6
TORSDOF 8
ENDMDL
MODEL 2
REMARK VINA RESULT:    -5.625      2.284      3.821
REMARK INTER + INTRA:          -8.694
REMARK INTER:                  -8.288
REMARK INTRA:                  -0.406
REMARK UNBOUND:                -0.603
REMARK SMILES CCCCCCC(C(C)O)n1ccnc1
REMARK SMILES IDX 5 1 4 2 3 3 2 4 1 5 6 6 7 7 8 8 9 9 10 10 11 12 12 13 15 14
REMARK SMILES IDX 13 15 14 16
REMARK H PARENT 10 11
ROOT
ATOM      1  C   UNL     1      49.158  57.020  20.877  1.00  0.00    +0.002 C 
ENDROOT
BRANCH   1   2
ATOM      2  C   UNL     1      48.128  58.149  20.913  1.00  0.00    +0.000 C 
BRANCH   2   3
ATOM      3  C   UNL     1      47.488  58.540  19.575  1.00  0.00    -0.000 C 
BRANCH   3   4
ATOM      4  C   UNL     1      47.001  59.989  19.493  1.00  0.00    -0.003 C 
ATOM      5  C   UNL     1      47.530  60.746  18.283  1.00  0.00    +0.004 C 
ENDBRANCH   3   4
ENDBRANCH   2   3
ENDBRANCH   1   2
BRANCH   1   6
ATOM      6  C   UNL     1      50.396  57.298  21.742  1.00  0.00    +0.028 C 
BRANCH   6   7
ATOM      7  C   UNL     1      51.682  56.667  21.159  1.00  0.00    +0.116 C 
BRANCH   7   8
ATOM      8  C   UNL     1      52.985  57.319  21.687  1.00  0.00    +0.134 C 
ATOM      9  C   UNL     1      52.951  58.839  21.799  1.00  0.00    +0.040 C 
BRANCH   8  10
ATOM     10  O   UNL     1      54.074  56.990  20.814  1.00  0.00    -0.391 OA
ATOM     11  H   UNL     1      54.592  57.799  20.662  1.00  0.00    +0.211 HD
ENDBRANCH   8  10
ENDBRANCH   7   8
BRANCH   7  12
ATOM     12  N   UNL     1      51.732  55.214  21.274  1.00  0.00    -0.332 N 
ATOM     13  C   UNL     1      51.907  54.298  20.274  1.00  0.00    +0.107 A 
ATOM     14  C   UNL     1      51.601  54.517  22.444  1.00  0.00    +0.199 A 
ATOM     15  C   UNL     1      51.866  53.074  20.899  1.00  0.00    +0.130 A 
ATOM     16  N   UNL     1      51.672  53.222  22.247  1.00  0.00    -0.245 NA
ENDBRANCH   7  12
ENDBRANCH   6   7
ENDBRANCH   1   6
TORSDOF 8
ENDMDL
MODEL 3
REMARK VINA RESULT:    -5.374      4.755      6.706
REMARK INTER + INTRA:          -8.332
REMARK INTER:                  -7.935
REMARK INTRA:                  -0.397
REMARK UNBOUND:                -0.603
REMARK SMILES CCCCCCC(C(C)O)n1ccnc1
REMARK SMILES IDX 5 1 4 2 3 3 2 4 1 5 6 6 7 7 8 8 9 9 10 10 11 12 12 13 15 14
REMARK SMILES IDX 13 15 14 16
REMARK H PARENT 10 11
ROOT
ATOM      1  C   UNL     1      48.664  49.259  18.871  1.00  0.00    +0.002 C 
ENDROOT
BRANCH   1   2
ATOM      2  C   UNL     1      47.380  48.532  18.465  1.00  0.00    +0.000 C 
BRANCH   2   3
ATOM      3  C   UNL     1      46.353  49.342  17.667  1.00  0.00    -0.000 C 
BRANCH   3   4
ATOM      4  C   UNL     1      44.968  48.698  17.559  1.00  0.00    -0.003 C 
ATOM      5  C   UNL     1      44.740  47.565  18.548  1.00  0.00    +0.004 C 
ENDBRANCH   3   4
ENDBRANCH   2   3
ENDBRANCH   1   2
BRANCH   1   6
ATOM      6  C   UNL     1      49.516  49.701  17.674  1.00  0.00    +0.028 C 
BRANCH   6   7
ATOM      7  C   UNL     1      50.295  51.009  17.949  1.00  0.00    +0.116 C 
BRANCH   7   8
ATOM      8  C   UNL     1      49.394  52.269  17.986  1.00  0.00    +0.134 C 
ATOM      9  C   UNL     1      48.385  52.379  16.848  1.00  0.00    +0.040 C 
BRANCH   8  10
ATOM     10  O   UNL     1      50.212  53.445  17.932  1.00  0.00    -0.391 OA
ATOM     11  H   UNL     1      50.931  53.282  17.297  1.00  0.00    +0.211 HD
ENDBRANCH   8  10
ENDBRANCH   7   8
BRANCH   7  12
ATOM     12  N   UNL     1      51.164  50.944  19.119  1.00  0.00    -0.332 N 
ATOM     13  C   UNL     1      50.907  51.402  20.382  1.00  0.00    +0.107 A 
ATOM     14  C   UNL     1      52.418  50.397  19.133  1.00  0.00    +0.199 A 
ATOM     15  C   UNL     1      52.040  51.111  21.105  1.00  0.00    +0.130 A 
ATOM     16  N   UNL     1      52.973  50.490  20.318  1.00  0.00    -0.245 NA
ENDBRANCH   7  12
ENDBRANCH   6   7
ENDBRANCH   1   6
TORSDOF 8
ENDMDL
MODEL 4
REMARK VINA RESULT:    -5.363      3.805      6.035
REMARK INTER + INTRA:          -8.317
REMARK INTER:                  -7.937
REMARK INTRA:                  -0.380
REMARK UNBOUND:                -0.603
REMARK SMILES CCCCCCC(C(C)O)n1ccnc1
REMARK SMILES IDX 5 1 4 2 3 3 2 4 1 5 6 6 7 7 8 8 9 9 10 10 11 12 12 13 15 14
REMARK SMILES IDX 13 15 14 16
REMARK H PARENT 10 11
ROOT
ATOM      1  C   UNL     1      49.168  49.192  18.957  1.00  0.00    +0.002 C 
ENDROOT
BRANCH   1   2
ATOM      2  C   UNL     1      47.911  49.487  18.137  1.00  0.00    +0.000 C 
BRANCH   2   3
ATOM      3  C   UNL     1      46.693  48.595  18.401  1.00  0.00    -0.000 C 
BRANCH   3   4
ATOM      4  C   UNL     1      45.418  49.010  17.659  1.00  0.00    -0.003 C 
ATOM      5  C   UNL     1      44.481  47.850  17.356  1.00  0.00    +0.004 C 
ENDBRANCH   3   4
ENDBRANCH   2   3
ENDBRANCH   1   2
BRANCH   1   6
ATOM      6  C   UNL     1      50.337  50.134  18.638  1.00  0.00    +0.028 C 
BRANCH   6   7
ATOM      7  C   UNL     1      50.672  51.084  19.811  1.00  0.00    +0.116 C 
BRANCH   7   8
ATOM      8  C   UNL     1      52.129  50.948  20.321  1.00  0.00    +0.134 C 
ATOM      9  C   UNL     1      52.894  49.743  19.785  1.00  0.00    +0.040 C 
BRANCH   8  10
ATOM     10  O   UNL     1      52.129  50.839  21.751  1.00  0.00    -0.391 OA
ATOM     11  H   UNL     1      52.141  49.894  21.980  1.00  0.00    +0.211 HD
ENDBRANCH   8  10
ENDBRANCH   7   8
BRANCH   7  12
ATOM     12  N   UNL     1      50.327  52.479  19.558  1.00  0.00    -0.332 N 
ATOM     13  C   UNL     1      50.378  53.528  20.433  1.00  0.00    +0.107 A 
ATOM     14  C   UNL     1      49.877  52.969  18.363  1.00  0.00    +0.199 A 
ATOM     15  C   UNL     1      49.944  54.616  19.714  1.00  0.00    +0.130 A 
ATOM     16  N   UNL     1      49.631  54.257  18.430  1.00  0.00    -0.245 NA
ENDBRANCH   7  12
ENDBRANCH   6   7
ENDBRANCH   1   6
TORSDOF 8
ENDMDL
MODEL 5
REMARK VINA RESULT:    -5.231      3.233      4.786
REMARK INTER + INTRA:          -8.127
REMARK INTER:                  -7.707
REMARK INTRA:                  -0.420
REMARK UNBOUND:                -0.603
REMARK SMILES CCCCCCC(C(C)O)n1ccnc1
REMARK SMILES IDX 5 1 4 2 3 3 2 4 1 5 6 6 7 7 8 8 9 9 10 10 11 12 12 13 15 14
REMARK SMILES IDX 13 15 14 16
REMARK H PARENT 10 11
ROOT
ATOM      1  C   UNL     1      50.130  54.799  19.398  1.00  0.00    +0.002 C 
ENDROOT
BRANCH   1   2
ATOM      2  C   UNL     1      49.220  55.469  20.428  1.00  0.00    +0.000 C 
BRANCH   2   3
ATOM      3  C   UNL     1      48.139  56.410  19.884  1.00  0.00    -0.000 C 
BRANCH   3   4
ATOM      4  C   UNL     1      47.945  57.701  20.684  1.00  0.00    -0.003 C 
ATOM      5  C   UNL     1      49.028  57.946  21.725  1.00  0.00    +0.004 C 
ENDBRANCH   3   4
ENDBRANCH   2   3
ENDBRANCH   1   2
BRANCH   1   6
ATOM      6  C   UNL     1      50.372  53.309  19.678  1.00  0.00    +0.028 C 
BRANCH   6   7
ATOM      7  C   UNL     1      50.710  52.512  18.397  1.00  0.00    +0.116 C 
BRANCH   7   8
ATOM      8  C   UNL     1      52.101  51.829  18.443  1.00  0.00    +0.134 C 
ATOM      9  C   UNL     1      52.686  51.642  19.838  1.00  0.00    +0.040 C 
BRANCH   8  10
ATOM     10  O   UNL     1      53.043  52.610  17.697  1.00  0.00    -0.391 OA
ATOM     11  H   UNL     1      52.564  53.355  17.294  1.00  0.00    +0.211 HD
ENDBRANCH   8  10
ENDBRANCH   7   8
BRANCH   7  12
ATOM     12  N   UNL     1      49.671  51.571  17.995  1.00  0.00    -0.332 N 
ATOM     13  C   UNL     1      49.597  50.233  18.269  1.00  0.00    +0.107 A 
ATOM     14  C   UNL     1      48.569  51.893  17.250  1.00  0.00    +0.199 A 
ATOM     15  C   UNL     1      48.441  49.806  17.661  1.00  0.00    +0.130 A 
ATOM     16  N   UNL     1      47.812  50.845  17.027  1.00  0.00    -0.245 NA
ENDBRANCH   7  12
ENDBRANCH   6   7
ENDBRANCH   1   6
TORSDOF 8
ENDMDL
