MODEL 1
REMARK VINA RESULT:    -7.842      0.000      0.000
REMARK INTER + INTRA:         -11.166
REMARK INTER:                 -10.593
REMARK INTRA:                  -0.573
REMARK UNBOUND:                -0.573
REMARK SMILES O=C(N/N=C/c1ccc[nH]1)c1ccc(C(=O)N/N=C/c2ccc[nH]2)o1
REMARK SMILES IDX 11 1 25 2 14 3 13 4 12 5 2 6 3 7 1 8 4 10 5 11 6 12 8 13
REMARK SMILES IDX 9 14 7 15 10 16 15 18 16 19 17 20 18 22 19 23 20 24 24 25
REMARK SMILES IDX 21 26 23 27 22 28
REMARK H PARENT 3 9 10 17 17 21 24 29
ROOT
ATOM      1  C   UNL     1      51.142  55.056  20.311  1.00  0.00    +0.194 A 
ATOM      2  O   UNL     1      50.045  55.877  20.252  1.00  0.00    -0.446 OA
ATOM      3  C   UNL     1      50.045  56.669  21.369  1.00  0.00    +0.194 A 
ATOM      4  C   UNL     1      51.134  56.347  22.157  1.00  0.00    +0.057 A 
ATOM      5  C   UNL     1      51.841  55.324  21.477  1.00  0.00    +0.057 A 
ENDROOT
BRANCH   1   6
ATOM      6  C   UNL     1      51.351  54.128  19.214  1.00  0.00    +0.307 C 
ATOM      7  N   UNL     1      50.282  53.262  18.991  1.00  0.00    -0.240 N 
ATOM      8  O   UNL     1      52.395  54.091  18.564  1.00  0.00    -0.264 OA
ATOM      9  H   UNL     1      49.509  53.229  19.644  1.00  0.00    +0.194 HD
BRANCH   7  10
ATOM     10  N   UNL     1      50.367  52.310  18.010  1.00  0.00    -0.179 NA
ATOM     11  C   UNL     1      49.271  52.050  17.375  1.00  0.00    +0.159 C 
BRANCH  11  12
ATOM     12  C   UNL     1      49.272  51.066  16.328  1.00  0.00    +0.058 A 
ATOM     13  C   UNL     1      48.742  49.640  14.655  1.00  0.00    +0.020 A 
ATOM     14  C   UNL     1      50.093  49.541  14.894  1.00  0.00    +0.083 A 
ATOM     15  C   UNL     1      48.224  50.603  15.555  1.00  0.00    +0.029 A 
ATOM     16  N   UNL     1      50.402  50.388  15.924  1.00  0.00    -0.360 N 
ATOM     17  H   UNL     1      51.319  50.526  16.334  1.00  0.00    +0.166 HD
ENDBRANCH  11  12
ENDBRANCH   7  10
ENDBRANCH   1   6
BRANCH   3  18
ATOM     18  C   UNL     1      49.005  57.665  21.537  1.00  0.00    +0.307 C 
ATOM     19  O   UNL     1      49.028  58.497  22.442  1.00  0.00    -0.264 OA
ATOM     20  N   UNL     1      48.014  57.590  20.557  1.00  0.00    -0.240 N 
ATOM     21  H   UNL     1      48.211  56.968  19.773  1.00  0.00    +0.194 HD
BRANCH  20  22
ATOM     22  N   UNL     1      47.153  58.618  20.252  1.00  0.00    -0.179 NA
ATOM     23  C   UNL     1      47.582  59.556  19.470  1.00  0.00    +0.159 C 
BRANCH  23  24
ATOM     24  C   UNL     1      46.694  60.622  19.078  1.00  0.00    +0.058 A 
ATOM     25  N   UNL     1      45.674  60.469  18.165  1.00  0.00    -0.360 N 
ATOM     26  C   UNL     1      46.602  61.915  19.562  1.00  0.00    +0.029 A 
ATOM     27  C   UNL     1      44.961  61.636  18.055  1.00  0.00    +0.083 A 
ATOM     28  C   UNL     1      45.522  62.555  18.908  1.00  0.00    +0.020 A 
ATOM     29  H   UNL     1      45.476  59.618  17.652  1.00  0.00    +0.166 HD
ENDBRANCH  23  24
ENDBRANCH  20  22
ENDBRANCH   3  18
TORSDOF 6
ENDMDL
MODEL 2
REMARK VINA RESULT:    -7.791      1.203      9.251
REMARK INTER + INTRA:         -11.096
REMARK INTER:                 -10.512
REMARK INTRA:                  -0.584
REMARK UNBOUND:                -0.573
REMARK SMILES O=C(N/N=C/c1ccc[nH]1)c1ccc(C(=O)N/N=C/c2ccc[nH]2)o1
REMARK SMILES IDX 11 1 25 2 14 3 13 4 12 5 2 6 3 7 1 8 4 10 5 11 6 12 8 13
REMARK SMILES IDX 9 14 7 15 10 16 15 18 16 19 17 20 18 22 19 23 20 24 24 25
REMARK SMILES IDX 21 26 23 27 22 28
REMARK H PARENT 3 9 10 17 17 21 24 29
ROOT
ATOM      1  C   UNL     1      50.101  56.501  20.920  1.00  0.00    +0.194 A 
ATOM      2  O   UNL     1      49.970  55.711  19.807  1.00  0.00    -0.446 OA
ATOM      3  C   UNL     1      50.999  54.807  19.805  1.00  0.00    +0.194 A 
ATOM      4  C   UNL     1      51.802  55.025  20.908  1.00  0.00    +0.057 A 
ATOM      5  C   UNL     1      51.223  56.101  21.627  1.00  0.00    +0.057 A 
ENDROOT
BRANCH   1   6
ATOM      6  C   UNL     1      49.104  57.536  21.135  1.00  0.00    +0.307 C 
ATOM      7  N   UNL     1      48.268  57.755  20.041  1.00  0.00    -0.240 N 
ATOM      8  O   UNL     1      49.029  58.180  22.179  1.00  0.00    -0.264 OA
ATOM      9  H   UNL     1      48.463  57.307  19.154  1.00  0.00    +0.194 HD
BRANCH   7  10
ATOM     10  N   UNL     1      47.309  58.731  20.099  1.00  0.00    -0.179 NA
ATOM     11  C   UNL     1      47.522  59.780  19.374  1.00  0.00    +0.159 C 
BRANCH  11  12
ATOM     12  C   UNL     1      46.565  60.851  19.374  1.00  0.00    +0.058 A 
ATOM     13  C   UNL     1      45.494  62.839  19.506  1.00  0.00    +0.020 A 
ATOM     14  C   UNL     1      44.579  61.880  19.139  1.00  0.00    +0.083 A 
ATOM     15  C   UNL     1      46.747  62.194  19.650  1.00  0.00    +0.029 A 
ATOM     16  N   UNL     1      45.228  60.676  19.086  1.00  0.00    -0.360 N 
ATOM     17  H   UNL     1      44.815  59.779  18.855  1.00  0.00    +0.166 HD
ENDBRANCH  11  12
ENDBRANCH   7  10
ENDBRANCH   1   6
BRANCH   3  18
ATOM     18  C   UNL     1      51.075  53.816  18.748  1.00  0.00    +0.307 C 
ATOM     19  O   UNL     1      52.146  53.381  18.328  1.00  0.00    -0.264 OA
ATOM     20  N   UNL     1      49.821  53.403  18.296  1.00  0.00    -0.240 N 
ATOM     21  H   UNL     1      49.024  53.716  18.850  1.00  0.00    +0.194 HD
BRANCH  20  22
ATOM     22  N   UNL     1      49.598  52.234  17.607  1.00  0.00    -0.179 NA
ATOM     23  C   UNL     1      49.431  51.149  18.292  1.00  0.00    +0.159 C 
BRANCH  23  24
ATOM     24  C   UNL     1      49.137  49.912  17.613  1.00  0.00    +0.058 A 
ATOM     25  N   UNL     1      49.273  49.735  16.253  1.00  0.00    -0.360 N 
ATOM     26  C   UNL     1      48.774  48.684  18.137  1.00  0.00    +0.029 A 
ATOM     27  C   UNL     1      48.989  48.437  15.916  1.00  0.00    +0.083 A 
ATOM     28  C   UNL     1      48.668  47.762  17.068  1.00  0.00    +0.020 A 
ATOM     29  H   UNL     1      49.547  50.459  15.598  1.00  0.00    +0.166 HD
ENDBRANCH  23  24
ENDBRANCH  20  22
ENDBRANCH   3  18
TORSDOF 6
ENDMDL
MODEL 3
REMARK VINA RESULT:    -7.666      4.863      6.396
REMARK INTER + INTRA:         -10.928
REMARK INTER:                 -10.483
REMARK INTRA:                  -0.446
REMARK UNBOUND:                -0.573
REMARK SMILES O=C(N/N=C/c1ccc[nH]1)c1ccc(C(=O)N/N=C/c2ccc[nH]2)o1
REMARK SMILES IDX 11 1 25 2 14 3 13 4 12 5 2 6 3 7 1 8 4 10 5 11 6 12 8 13
REMARK SMILES IDX 9 14 7 15 10 16 15 18 16 19 17 20 18 22 19 23 20 24 24 25
REMARK SMILES IDX 21 26 23 27 22 28
REMARK H PARENT 3 9 10 17 17 21 24 29
ROOT
ATOM      1  C   UNL     1      49.850  49.855  18.781  1.00  0.00    +0.194 A 
ATOM      2  O   UNL     1      50.248  51.127  19.105  1.00  0.00    -0.446 OA
ATOM      3  C   UNL     1      50.895  51.075  20.311  1.00  0.00    +0.194 A 
ATOM      4  C   UNL     1      50.900  49.773  20.772  1.00  0.00    +0.057 A 
ATOM      5  C   UNL     1      50.241  48.990  19.790  1.00  0.00    +0.057 A 
ENDROOT
BRANCH   1   6
ATOM      6  C   UNL     1      49.145  49.667  17.524  1.00  0.00    +0.307 C 
ATOM      7  N   UNL     1      48.850  48.336  17.233  1.00  0.00    -0.240 N 
ATOM      8  O   UNL     1      48.865  50.599  16.773  1.00  0.00    -0.264 OA
ATOM      9  H   UNL     1      49.231  47.594  17.805  1.00  0.00    +0.194 HD
BRANCH   7  10
ATOM     10  N   UNL     1      48.221  48.018  16.059  1.00  0.00    -0.179 NA
ATOM     11  C   UNL     1      46.939  47.868  16.125  1.00  0.00    +0.159 C 
BRANCH  11  12
ATOM     12  C   UNL     1      46.200  47.535  14.938  1.00  0.00    +0.058 A 
ATOM     13  C   UNL     1      45.292  47.450  12.869  1.00  0.00    +0.020 A 
ATOM     14  C   UNL     1      44.815  46.382  13.592  1.00  0.00    +0.083 A 
ATOM     15  C   UNL     1      46.168  48.175  13.713  1.00  0.00    +0.029 A 
ATOM     16  N   UNL     1      45.349  46.454  14.851  1.00  0.00    -0.360 N 
ATOM     17  H   UNL     1      45.174  45.812  15.616  1.00  0.00    +0.166 HD
ENDBRANCH  11  12
ENDBRANCH   7  10
ENDBRANCH   1   6
BRANCH   3  18
ATOM     18  C   UNL     1      51.458  52.289  20.870  1.00  0.00    +0.307 C 
ATOM     19  O   UNL     1      52.011  52.315  21.968  1.00  0.00    -0.264 OA
ATOM     20  N   UNL     1      51.329  53.391  20.024  1.00  0.00    -0.240 N 
ATOM     21  H   UNL     1      51.006  53.189  19.077  1.00  0.00    +0.194 HD
BRANCH  20  22
ATOM     22  N   UNL     1      52.090  54.532  20.122  1.00  0.00    -0.179 NA
ATOM     23  C   UNL     1      51.665  55.479  20.896  1.00  0.00    +0.159 C 
BRANCH  23  24
ATOM     24  C   UNL     1      52.460  56.668  21.074  1.00  0.00    +0.058 A 
ATOM     25  N   UNL     1      52.218  57.611  22.048  1.00  0.00    -0.360 N 
ATOM     26  C   UNL     1      53.618  57.058  20.424  1.00  0.00    +0.029 A 
ATOM     27  C   UNL     1      53.184  58.584  22.012  1.00  0.00    +0.083 A 
ATOM     28  C   UNL     1      54.063  58.270  21.006  1.00  0.00    +0.020 A 
ATOM     29  H   UNL     1      51.443  57.587  22.700  1.00  0.00    +0.166 HD
ENDBRANCH  23  24
ENDBRANCH  20  22
ENDBRANCH   3  18
TORSDOF 6
ENDMDL
MODEL 4
REMARK VINA RESULT:    -7.578      4.748      9.720
REMARK INTER + INTRA:         -10.809
REMARK INTER:                 -10.354
REMARK INTRA:                  -0.456
REMARK UNBOUND:                -0.573
REMARK SMILES O=C(N/N=C/c1ccc[nH]1)c1ccc(C(=O)N/N=C/c2ccc[nH]2)o1
REMARK SMILES IDX 11 1 25 2 14 3 13 4 12 5 2 6 3 7 1 8 4 10 5 11 6 12 8 13
REMARK SMILES IDX 9 14 7 15 10 16 15 18 16 19 17 20 18 22 19 23 20 24 24 25
REMARK SMILES IDX 21 26 23 27 22 28
REMARK H PARENT 3 9 10 17 17 21 24 29
ROOT
ATOM      1  C   UNL     1      50.953  51.036  19.635  1.00  0.00    +0.194 A 
ATOM      2  O   UNL     1      49.935  50.603  18.824  1.00  0.00    -0.446 OA
ATOM      3  C   UNL     1      49.559  49.355  19.244  1.00  0.00    +0.194 A 
ATOM      4  C   UNL     1      50.345  48.977  20.316  1.00  0.00    +0.057 A 
ATOM      5  C   UNL     1      51.230  50.055  20.573  1.00  0.00    +0.057 A 
ENDROOT
BRANCH   1   6
ATOM      6  C   UNL     1      51.507  52.354  19.378  1.00  0.00    +0.307 C 
ATOM      7  N   UNL     1      51.302  53.268  20.410  1.00  0.00    -0.240 N 
ATOM      8  O   UNL     1      52.077  52.642  18.327  1.00  0.00    -0.264 OA
ATOM      9  H   UNL     1      50.700  53.029  21.188  1.00  0.00    +0.194 HD
BRANCH   7  10
ATOM     10  N   UNL     1      51.742  54.558  20.278  1.00  0.00    -0.179 NA
ATOM     11  C   UNL     1      52.018  55.179  21.378  1.00  0.00    +0.159 C 
BRANCH  11  12
ATOM     12  C   UNL     1      52.488  56.536  21.329  1.00  0.00    +0.058 A 
ATOM     13  C   UNL     1      53.535  58.481  20.844  1.00  0.00    +0.020 A 
ATOM     14  C   UNL     1      52.642  58.715  21.863  1.00  0.00    +0.083 A 
ATOM     15  C   UNL     1      53.436  57.110  20.503  1.00  0.00    +0.029 A 
ATOM     16  N   UNL     1      52.030  57.529  22.169  1.00  0.00    -0.360 N 
ATOM     17  H   UNL     1      51.331  57.381  22.888  1.00  0.00    +0.166 HD
ENDBRANCH  11  12
ENDBRANCH   7  10
ENDBRANCH   1   6
BRANCH   3  18
ATOM     18  C   UNL     1      48.464  48.677  18.576  1.00  0.00    +0.307 C 
ATOM     19  O   UNL     1      47.333  48.624  19.053  1.00  0.00    -0.264 OA
ATOM     20  N   UNL     1      48.829  48.134  17.343  1.00  0.00    -0.240 N 
ATOM     21  H   UNL     1      49.750  48.403  16.995  1.00  0.00    +0.194 HD
BRANCH  20  22
ATOM     22  N   UNL     1      47.935  47.795  16.356  1.00  0.00    -0.179 NA
ATOM     23  C   UNL     1      47.320  48.754  15.740  1.00  0.00    +0.159 C 
BRANCH  23  24
ATOM     24  C   UNL     1      46.418  48.446  14.658  1.00  0.00    +0.058 A 
ATOM     25  N   UNL     1      46.683  48.731  13.337  1.00  0.00    -0.360 N 
ATOM     26  C   UNL     1      45.218  47.757  14.682  1.00  0.00    +0.029 A 
ATOM     27  C   UNL     1      45.674  48.254  12.541  1.00  0.00    +0.083 A 
ATOM     28  C   UNL     1      44.745  47.650  13.352  1.00  0.00    +0.020 A 
ATOM     29  H   UNL     1      47.506  49.219  13.002  1.00  0.00    +0.166 HD
ENDBRANCH  23  24
ENDBRANCH  20  22
ENDBRANCH   3  18
TORSDOF 6
ENDMDL
MODEL 5
REMARK VINA RESULT:    -7.468      3.124      8.908
REMARK INTER + INTRA:         -10.661
REMARK INTER:                 -10.085
REMARK INTRA:                  -0.576
REMARK UNBOUND:                -0.573
REMARK SMILES O=C(N/N=C/c1ccc[nH]1)c1ccc(C(=O)N/N=C/c2ccc[nH]2)o1
REMARK SMILES IDX 11 1 25 2 14 3 13 4 12 5 2 6 3 7 1 8 4 10 5 11 6 12 8 13
REMARK SMILES IDX 9 14 7 15 10 16 15 18 16 19 17 20 18 22 19 23 20 24 24 25
REMARK SMILES IDX 21 26 23 27 22 28
REMARK H PARENT 3 9 10 17 17 21 24 29
ROOT
ATOM      1  C   UNL     1      51.255  52.998  20.839  1.00  0.00    +0.194 A 
ATOM      2  O   UNL     1      50.643  52.147  19.955  1.00  0.00    -0.446 OA
ATOM      3  C   UNL     1      50.969  50.864  20.304  1.00  0.00    +0.194 A 
ATOM      4  C   UNL     1      51.805  50.889  21.404  1.00  0.00    +0.057 A 
ATOM      5  C   UNL     1      51.980  52.252  21.753  1.00  0.00    +0.057 A 
ENDROOT
BRANCH   1   6
ATOM      6  C   UNL     1      51.040  54.424  20.664  1.00  0.00    +0.307 C 
ATOM      7  N   UNL     1      49.763  54.754  20.211  1.00  0.00    -0.240 N 
ATOM      8  O   UNL     1      51.919  55.260  20.866  1.00  0.00    -0.264 OA
ATOM      9  H   UNL     1      49.124  54.026  19.917  1.00  0.00    +0.194 HD
BRANCH   7  10
ATOM     10  N   UNL     1      49.442  56.063  19.968  1.00  0.00    -0.179 NA
ATOM     11  C   UNL     1      48.239  56.283  19.547  1.00  0.00    +0.159 C 
BRANCH  11  12
ATOM     12  C   UNL     1      47.818  57.629  19.270  1.00  0.00    +0.058 A 
ATOM     13  C   UNL     1      47.163  59.790  19.377  1.00  0.00    +0.020 A 
ATOM     14  C   UNL     1      47.261  59.436  18.052  1.00  0.00    +0.083 A 
ATOM     15  C   UNL     1      47.517  58.655  20.146  1.00  0.00    +0.029 A 
ATOM     16  N   UNL     1      47.634  58.119  17.994  1.00  0.00    -0.360 N 
ATOM     17  H   UNL     1      47.776  57.571  17.154  1.00  0.00    +0.166 HD
ENDBRANCH  11  12
ENDBRANCH   7  10
ENDBRANCH   1   6
BRANCH   3  18
ATOM     18  C   UNL     1      50.415  49.756  19.549  1.00  0.00    +0.307 C 
ATOM     19  O   UNL     1      50.561  48.585  19.893  1.00  0.00    -0.264 OA
ATOM     20  N   UNL     1      49.689  50.168  18.431  1.00  0.00    -0.240 N 
ATOM     21  H   UNL     1      49.505  51.169  18.364  1.00  0.00    +0.194 HD
BRANCH  20  22
ATOM     22  N   UNL     1      48.761  49.386  17.784  1.00  0.00    -0.179 NA
ATOM     23  C   UNL     1      47.550  49.378  18.241  1.00  0.00    +0.159 C 
BRANCH  23  24
ATOM     24  C   UNL     1      46.533  48.618  17.559  1.00  0.00    +0.058 A 
ATOM     25  N   UNL     1      46.777  47.434  16.899  1.00  0.00    -0.360 N 
ATOM     26  C   UNL     1      45.167  48.830  17.498  1.00  0.00    +0.029 A 
ATOM     27  C   UNL     1      45.605  46.913  16.416  1.00  0.00    +0.083 A 
ATOM     28  C   UNL     1      44.588  47.766  16.767  1.00  0.00    +0.020 A 
ATOM     29  H   UNL     1      47.691  47.007  16.790  1.00  0.00    +0.166 HD
ENDBRANCH  23  24
ENDBRANCH  20  22
ENDBRANCH   3  18
TORSDOF 6
ENDMDL
