MODEL 1
REMARK VINA RESULT:    -8.852      0.000      0.000
REMARK INTER + INTRA:         -13.299
REMARK INTER:                 -11.957
REMARK INTRA:                  -1.342
REMARK UNBOUND:                -1.342
REMARK SMILES CCN(CC)c1ccc2cc(C(=O)Nc3sc4c(c3C(N)=O)CCCC4)c(=O)oc2c1
REMARK SMILES IDX 6 1 7 2 8 3 9 4 10 5 11 6 27 7 28 8 29 9 30 10 31 11 3 12
REMARK SMILES IDX 2 13 1 14 4 15 5 16 12 17 13 18 14 19 15 21 19 22 16 23
REMARK SMILES IDX 18 24 17 25 23 26 26 27 24 28 25 29 20 30 22 31 21 32
REMARK H PARENT 14 20 21 33 21 34
ROOT
ATOM      1  C   UNL     1      45.881  63.359  17.952  1.00  0.00    +0.040 A 
ATOM      2  C   UNL     1      46.268  63.241  19.302  1.00  0.00    +0.027 A 
ATOM      3  C   UNL     1      46.745  62.042  19.856  1.00  0.00    +0.014 A 
ATOM      4  C   UNL     1      46.853  60.905  19.066  1.00  0.00    +0.019 A 
ATOM      5  C   UNL     1      47.336  59.636  19.578  1.00  0.00    +0.033 C 
ATOM      6  C   UNL     1      47.423  58.558  18.780  1.00  0.00    +0.126 C 
ATOM      7  C   UNL     1      47.042  58.653  17.353  1.00  0.00    +0.349 C 
ATOM      8  O   UNL     1      47.130  57.690  16.597  1.00  0.00    -0.246 OA
ATOM      9  O   UNL     1      46.577  59.880  16.889  1.00  0.00    -0.422 OA
ATOM     10  C   UNL     1      46.483  60.998  17.736  1.00  0.00    +0.140 A 
ATOM     11  C   UNL     1      46.007  62.191  17.181  1.00  0.00    +0.073 A 
ENDROOT
BRANCH   1  12
ATOM     12  N   UNL     1      45.406  64.553  17.417  1.00  0.00    -0.372 N 
BRANCH  12  13
ATOM     13  C   UNL     1      46.319  65.617  16.977  1.00  0.00    +0.113 C 
ATOM     14  C   UNL     1      47.105  65.199  15.743  1.00  0.00    +0.027 C 
ENDBRANCH  12  13
BRANCH  12  15
ATOM     15  C   UNL     1      43.968  64.839  17.299  1.00  0.00    +0.113 C 
ATOM     16  C   UNL     1      43.699  66.329  17.142  1.00  0.00    +0.027 C 
ENDBRANCH  12  15
ENDBRANCH   1  12
BRANCH   6  17
ATOM     17  C   UNL     1      47.940  57.293  19.407  1.00  0.00    +0.263 C 
ATOM     18  O   UNL     1      47.602  57.018  20.556  1.00  0.00    -0.269 OA
ATOM     19  N   UNL     1      48.751  56.536  18.587  1.00  0.00    -0.313 N 
ATOM     20  H   UNL     1      48.914  56.869  17.632  1.00  0.00    +0.171 HD
BRANCH  19  21
ATOM     21  C   UNL     1      49.370  55.328  18.888  1.00  0.00    +0.109 A 
ATOM     22  C   UNL     1      50.416  55.143  19.789  1.00  0.00    +0.077 A 
ATOM     23  S   UNL     1      48.859  53.870  18.183  1.00  0.00    -0.122 S 
ATOM     24  C   UNL     1      50.817  53.751  19.837  1.00  0.00    -0.019 A 
ATOM     25  C   UNL     1      50.027  52.969  19.015  1.00  0.00    +0.011 A 
ATOM     26  C   UNL     1      51.945  53.146  20.627  1.00  0.00    +0.037 C 
ATOM     27  C   UNL     1      50.181  51.496  18.793  1.00  0.00    +0.047 C 
ATOM     28  C   UNL     1      52.343  51.759  20.098  1.00  0.00    +0.005 C 
ATOM     29  C   UNL     1      51.109  50.881  19.851  1.00  0.00    +0.006 C 
BRANCH  22  30
ATOM     30  C   UNL     1      51.003  56.263  20.521  1.00  0.00    +0.251 C 
ATOM     31  O   UNL     1      51.788  57.059  20.018  1.00  0.00    -0.269 OA
ATOM     32  N   UNL     1      50.572  56.436  21.804  1.00  0.00    -0.365 N 
ATOM     33  H   UNL     1      50.835  57.317  22.226  1.00  0.00    +0.159 HD
ATOM     34  H   UNL     1      49.691  56.035  22.090  1.00  0.00    +0.159 HD
ENDBRANCH  22  30
ENDBRANCH  19  21
ENDBRANCH   6  17
TORSDOF 6
ENDMDL
MODEL 2
REMARK VINA RESULT:    -8.646      5.828      9.518
REMARK INTER + INTRA:         -13.020
REMARK INTER:                 -12.038
REMARK INTRA:                  -0.982
REMARK UNBOUND:                -1.342
REMARK SMILES CCN(CC)c1ccc2cc(C(=O)Nc3sc4c(c3C(N)=O)CCCC4)c(=O)oc2c1
REMARK SMILES IDX 6 1 7 2 8 3 9 4 10 5 11 6 27 7 28 8 29 9 30 10 31 11 3 12
REMARK SMILES IDX 2 13 1 14 4 15 5 16 12 17 13 18 14 19 15 21 19 22 16 23
REMARK SMILES IDX 18 24 17 25 23 26 26 27 24 28 25 29 20 30 22 31 21 32
REMARK H PARENT 14 20 21 33 21 34
ROOT
ATOM      1  C   UNL     1      50.074  55.413  20.204  1.00  0.00    +0.040 A 
ATOM      2  C   UNL     1      49.231  55.636  19.096  1.00  0.00    +0.027 A 
ATOM      3  C   UNL     1      48.807  54.605  18.241  1.00  0.00    +0.014 A 
ATOM      4  C   UNL     1      49.219  53.298  18.471  1.00  0.00    +0.019 A 
ATOM      5  C   UNL     1      48.819  52.190  17.623  1.00  0.00    +0.033 C 
ATOM      6  C   UNL     1      49.241  50.939  17.879  1.00  0.00    +0.126 C 
ATOM      7  C   UNL     1      50.112  50.669  19.045  1.00  0.00    +0.349 C 
ATOM      8  O   UNL     1      50.495  49.534  19.313  1.00  0.00    -0.246 OA
ATOM      9  O   UNL     1      50.484  51.750  19.837  1.00  0.00    -0.422 OA
ATOM     10  C   UNL     1      50.043  53.055  19.555  1.00  0.00    +0.140 A 
ATOM     11  C   UNL     1      50.466  54.079  20.408  1.00  0.00    +0.073 A 
ENDROOT
BRANCH   1  12
ATOM     12  N   UNL     1      50.489  56.445  21.041  1.00  0.00    -0.372 N 
BRANCH  12  13
ATOM     13  C   UNL     1      51.421  56.208  22.152  1.00  0.00    +0.113 C 
ATOM     14  C   UNL     1      52.707  57.003  21.976  1.00  0.00    +0.027 C 
ENDBRANCH  12  13
BRANCH  12  15
ATOM     15  C   UNL     1      49.989  57.820  20.892  1.00  0.00    +0.113 C 
ATOM     16  C   UNL     1      48.872  58.126  21.881  1.00  0.00    +0.027 C 
ENDBRANCH  12  15
ENDBRANCH   1  12
BRANCH   6  17
ATOM     17  C   UNL     1      48.766  49.862  16.944  1.00  0.00    +0.263 C 
ATOM     18  O   UNL     1      49.597  49.146  16.391  1.00  0.00    -0.269 OA
ATOM     19  N   UNL     1      47.394  49.775  16.819  1.00  0.00    -0.313 N 
ATOM     20  H   UNL     1      46.819  50.414  17.376  1.00  0.00    +0.171 HD
BRANCH  19  21
ATOM     21  C   UNL     1      46.669  48.885  16.034  1.00  0.00    +0.109 A 
ATOM     22  C   UNL     1      45.724  47.970  16.489  1.00  0.00    +0.077 A 
ATOM     23  S   UNL     1      46.839  48.852  14.344  1.00  0.00    -0.122 S 
ATOM     24  C   UNL     1      45.179  47.199  15.389  1.00  0.00    -0.019 A 
ATOM     25  C   UNL     1      45.704  47.607  14.177  1.00  0.00    +0.011 A 
ATOM     26  C   UNL     1      44.187  46.070  15.461  1.00  0.00    +0.037 C 
ATOM     27  C   UNL     1      45.393  47.008  12.840  1.00  0.00    +0.047 C 
ATOM     28  C   UNL     1      44.185  45.222  14.179  1.00  0.00    +0.005 C 
ATOM     29  C   UNL     1      44.155  46.105  12.925  1.00  0.00    +0.006 C 
BRANCH  22  30
ATOM     30  C   UNL     1      45.407  47.838  17.909  1.00  0.00    +0.251 C 
ATOM     31  O   UNL     1      46.261  47.777  18.787  1.00  0.00    -0.269 OA
ATOM     32  N   UNL     1      44.082  47.862  18.236  1.00  0.00    -0.365 N 
ATOM     33  H   UNL     1      43.890  47.966  19.224  1.00  0.00    +0.159 HD
ATOM     34  H   UNL     1      43.420  48.271  17.594  1.00  0.00    +0.159 HD
ENDBRANCH  22  30
ENDBRANCH  19  21
ENDBRANCH   6  17
TORSDOF 6
ENDMDL
MODEL 3
REMARK VINA RESULT:    -8.557      6.243     10.971
REMARK INTER + INTRA:         -12.901
REMARK INTER:                 -11.972
REMARK INTRA:                  -0.929
REMARK UNBOUND:                -1.342
REMARK SMILES CCN(CC)c1ccc2cc(C(=O)Nc3sc4c(c3C(N)=O)CCCC4)c(=O)oc2c1
REMARK SMILES IDX 6 1 7 2 8 3 9 4 10 5 11 6 27 7 28 8 29 9 30 10 31 11 3 12
REMARK SMILES IDX 2 13 1 14 4 15 5 16 12 17 13 18 14 19 15 21 19 22 16 23
REMARK SMILES IDX 18 24 17 25 23 26 26 27 24 28 25 29 20 30 22 31 21 32
REMARK H PARENT 14 20 21 33 21 34
ROOT
ATOM      1  C   UNL     1      45.582  47.673  14.712  1.00  0.00    +0.040 A 
ATOM      2  C   UNL     1      44.907  48.121  15.865  1.00  0.00    +0.027 A 
ATOM      3  C   UNL     1      45.514  48.938  16.834  1.00  0.00    +0.014 A 
ATOM      4  C   UNL     1      46.834  49.339  16.677  1.00  0.00    +0.019 A 
ATOM      5  C   UNL     1      47.519  50.179  17.642  1.00  0.00    +0.033 C 
ATOM      6  C   UNL     1      48.799  50.544  17.454  1.00  0.00    +0.126 C 
ATOM      7  C   UNL     1      49.529  50.106  16.243  1.00  0.00    +0.349 C 
ATOM      8  O   UNL     1      50.692  50.440  16.037  1.00  0.00    -0.246 OA
ATOM      9  O   UNL     1      48.851  49.296  15.338  1.00  0.00    -0.422 OA
ATOM     10  C   UNL     1      47.514  48.915  15.550  1.00  0.00    +0.140 A 
ATOM     11  C   UNL     1      46.914  48.102  14.583  1.00  0.00    +0.073 A 
ENDROOT
BRANCH   1  12
ATOM     12  N   UNL     1      44.969  46.861  13.761  1.00  0.00    -0.372 N 
BRANCH  12  13
ATOM     13  C   UNL     1      44.506  45.505  14.090  1.00  0.00    +0.113 C 
ATOM     14  C   UNL     1      43.006  45.478  14.344  1.00  0.00    +0.027 C 
ENDBRANCH  12  13
BRANCH  12  15
ATOM     15  C   UNL     1      44.787  47.291  12.367  1.00  0.00    +0.113 C 
ATOM     16  C   UNL     1      43.803  48.447  12.255  1.00  0.00    +0.027 C 
ENDBRANCH  12  15
ENDBRANCH   1  12
BRANCH   6  17
ATOM     17  C   UNL     1      49.414  51.419  18.510  1.00  0.00    +0.263 C 
ATOM     18  O   UNL     1      49.999  50.891  19.453  1.00  0.00    -0.269 OA
ATOM     19  N   UNL     1      49.270  52.773  18.288  1.00  0.00    -0.313 N 
ATOM     20  H   UNL     1      48.792  53.073  17.433  1.00  0.00    +0.171 HD
BRANCH  19  21
ATOM     21  C   UNL     1      49.729  53.817  19.084  1.00  0.00    +0.109 A 
ATOM     22  C   UNL     1      51.051  54.043  19.461  1.00  0.00    +0.077 A 
ATOM     23  S   UNL     1      48.676  55.012  19.674  1.00  0.00    -0.122 S 
ATOM     24  C   UNL     1      51.154  55.218  20.304  1.00  0.00    -0.019 A 
ATOM     25  C   UNL     1      49.926  55.830  20.472  1.00  0.00    +0.011 A 
ATOM     26  C   UNL     1      52.387  55.763  20.973  1.00  0.00    +0.037 C 
ATOM     27  C   UNL     1      49.657  57.043  21.307  1.00  0.00    +0.047 C 
ATOM     28  C   UNL     1      52.043  56.731  22.116  1.00  0.00    +0.005 C 
ATOM     29  C   UNL     1      50.970  57.741  21.689  1.00  0.00    +0.006 C 
BRANCH  22  30
ATOM     30  C   UNL     1      52.128  53.144  19.053  1.00  0.00    +0.251 C 
ATOM     31  O   UNL     1      52.661  53.190  17.950  1.00  0.00    -0.269 OA
ATOM     32  N   UNL     1      52.580  52.275  20.003  1.00  0.00    -0.365 N 
ATOM     33  H   UNL     1      53.445  51.803  19.771  1.00  0.00    +0.159 HD
ATOM     34  H   UNL     1      52.415  52.476  20.979  1.00  0.00    +0.159 HD
ENDBRANCH  22  30
ENDBRANCH  19  21
ENDBRANCH   6  17
TORSDOF 6
ENDMDL
MODEL 4
REMARK VINA RESULT:    -8.493      2.655     10.379
REMARK INTER + INTRA:         -12.815
REMARK INTER:                 -11.516
REMARK INTRA:                  -1.299
REMARK UNBOUND:                -1.342
REMARK SMILES CCN(CC)c1ccc2cc(C(=O)Nc3sc4c(c3C(N)=O)CCCC4)c(=O)oc2c1
REMARK SMILES IDX 6 1 7 2 8 3 9 4 10 5 11 6 27 7 28 8 29 9 30 10 31 11 3 12
REMARK SMILES IDX 2 13 1 14 4 15 5 16 12 17 13 18 14 19 15 21 19 22 16 23
REMARK SMILES IDX 18 24 17 25 23 26 26 27 24 28 25 29 20 30 22 31 21 32
REMARK H PARENT 14 20 21 33 21 34
ROOT
ATOM      1  C   UNL     1      49.635  55.220  19.895  1.00  0.00    +0.040 A 
ATOM      2  C   UNL     1      49.621  55.968  21.089  1.00  0.00    +0.027 A 
ATOM      3  C   UNL     1      49.004  57.226  21.194  1.00  0.00    +0.014 A 
ATOM      4  C   UNL     1      48.371  57.784  20.091  1.00  0.00    +0.019 A 
ATOM      5  C   UNL     1      47.719  59.080  20.133  1.00  0.00    +0.033 C 
ATOM      6  C   UNL     1      47.119  59.586  19.041  1.00  0.00    +0.126 C 
ATOM      7  C   UNL     1      47.100  58.817  17.777  1.00  0.00    +0.349 C 
ATOM      8  O   UNL     1      46.542  59.246  16.771  1.00  0.00    -0.246 OA
ATOM      9  O   UNL     1      47.737  57.581  17.763  1.00  0.00    -0.422 OA
ATOM     10  C   UNL     1      48.368  57.066  18.909  1.00  0.00    +0.140 A 
ATOM     11  C   UNL     1      48.981  55.813  18.801  1.00  0.00    +0.073 A 
ENDROOT
BRANCH   1  12
ATOM     12  N   UNL     1      50.252  53.976  19.804  1.00  0.00    -0.372 N 
BRANCH  12  13
ATOM     13  C   UNL     1      50.605  53.383  18.506  1.00  0.00    +0.113 C 
ATOM     14  C   UNL     1      49.600  52.318  18.092  1.00  0.00    +0.027 C 
ENDBRANCH  12  13
BRANCH  12  15
ATOM     15  C   UNL     1      50.550  53.164  20.993  1.00  0.00    +0.113 C 
ATOM     16  C   UNL     1      51.943  52.552  20.926  1.00  0.00    +0.027 C 
ENDBRANCH  12  15
ENDBRANCH   1  12
BRANCH   6  17
ATOM     17  C   UNL     1      46.469  60.933  19.192  1.00  0.00    +0.263 C 
ATOM     18  O   UNL     1      47.067  61.817  19.800  1.00  0.00    -0.269 OA
ATOM     19  N   UNL     1      45.233  61.044  18.588  1.00  0.00    -0.313 N 
ATOM     20  H   UNL     1      44.873  60.233  18.076  1.00  0.00    +0.171 HD
BRANCH  19  21
ATOM     21  C   UNL     1      44.400  62.157  18.560  1.00  0.00    +0.109 A 
ATOM     22  C   UNL     1      44.535  63.262  17.724  1.00  0.00    +0.077 A 
ATOM     23  S   UNL     1      43.034  62.268  19.563  1.00  0.00    -0.122 S 
ATOM     24  C   UNL     1      43.491  64.235  17.982  1.00  0.00    -0.019 A 
ATOM     25  C   UNL     1      42.613  63.790  18.951  1.00  0.00    +0.011 A 
ATOM     26  C   UNL     1      43.319  65.588  17.345  1.00  0.00    +0.037 C 
ATOM     27  C   UNL     1      41.440  64.550  19.489  1.00  0.00    +0.047 C 
ATOM     28  C   UNL     1      42.389  66.497  18.165  1.00  0.00    +0.005 C 
ATOM     29  C   UNL     1      41.117  65.754  18.593  1.00  0.00    +0.006 C 
BRANCH  22  30
ATOM     30  C   UNL     1      45.634  63.370  16.768  1.00  0.00    +0.251 C 
ATOM     31  O   UNL     1      46.772  63.699  17.084  1.00  0.00    -0.269 OA
ATOM     32  N   UNL     1      45.353  63.007  15.483  1.00  0.00    -0.365 N 
ATOM     33  H   UNL     1      46.161  62.901  14.884  1.00  0.00    +0.159 HD
ATOM     34  H   UNL     1      44.562  62.407  15.298  1.00  0.00    +0.159 HD
ENDBRANCH  22  30
ENDBRANCH  19  21
ENDBRANCH   6  17
TORSDOF 6
ENDMDL
MODEL 5
REMARK VINA RESULT:    -8.218      1.667      2.542
REMARK INTER + INTRA:         -12.442
REMARK INTER:                 -11.577
REMARK INTRA:                  -0.865
REMARK UNBOUND:                -1.342
REMARK SMILES CCN(CC)c1ccc2cc(C(=O)Nc3sc4c(c3C(N)=O)CCCC4)c(=O)oc2c1
REMARK SMILES IDX 6 1 7 2 8 3 9 4 10 5 11 6 27 7 28 8 29 9 30 10 31 11 3 12
REMARK SMILES IDX 2 13 1 14 4 15 5 16 12 17 13 18 14 19 15 21 19 22 16 23
REMARK SMILES IDX 18 24 17 25 23 26 26 27 24 28 25 29 20 30 22 31 21 32
REMARK H PARENT 14 20 21 33 21 34
ROOT
ATOM      1  C   UNL     1      45.860  61.654  18.245  1.00  0.00    +0.040 A 
ATOM      2  C   UNL     1      45.699  60.937  17.042  1.00  0.00    +0.027 A 
ATOM      3  C   UNL     1      46.239  59.656  16.840  1.00  0.00    +0.014 A 
ATOM      4  C   UNL     1      46.968  59.042  17.850  1.00  0.00    +0.019 A 
ATOM      5  C   UNL     1      47.555  57.722  17.703  1.00  0.00    +0.033 C 
ATOM      6  C   UNL     1      48.256  57.164  18.704  1.00  0.00    +0.126 C 
ATOM      7  C   UNL     1      48.428  57.883  19.986  1.00  0.00    +0.349 C 
ATOM      8  O   UNL     1      49.047  57.388  20.924  1.00  0.00    -0.246 OA
ATOM      9  O   UNL     1      47.861  59.148  20.098  1.00  0.00    -0.422 OA
ATOM     10  C   UNL     1      47.136  59.726  19.041  1.00  0.00    +0.140 A 
ATOM     11  C   UNL     1      46.599  61.001  19.245  1.00  0.00    +0.073 A 
ENDROOT
BRANCH   1  12
ATOM     12  N   UNL     1      45.322  62.925  18.430  1.00  0.00    -0.372 N 
BRANCH  12  13
ATOM     13  C   UNL     1      45.650  64.039  17.529  1.00  0.00    +0.113 C 
ATOM     14  C   UNL     1      47.150  64.287  17.476  1.00  0.00    +0.027 C 
ENDBRANCH  12  13
BRANCH  12  15
ATOM     15  C   UNL     1      44.432  63.239  19.558  1.00  0.00    +0.113 C 
ATOM     16  C   UNL     1      43.152  62.414  19.515  1.00  0.00    +0.027 C 
ENDBRANCH  12  15
ENDBRANCH   1  12
BRANCH   6  17
ATOM     17  C   UNL     1      48.817  55.792  18.452  1.00  0.00    +0.263 C 
ATOM     18  O   UNL     1      48.838  55.360  17.302  1.00  0.00    -0.269 OA
ATOM     19  N   UNL     1      49.288  55.149  19.579  1.00  0.00    -0.313 N 
ATOM     20  H   UNL     1      49.246  55.650  20.472  1.00  0.00    +0.171 HD
BRANCH  19  21
ATOM     21  C   UNL     1      49.858  53.883  19.657  1.00  0.00    +0.109 A 
ATOM     22  C   UNL     1      50.896  53.500  20.502  1.00  0.00    +0.077 A 
ATOM     23  S   UNL     1      49.285  52.594  18.712  1.00  0.00    -0.122 S 
ATOM     24  C   UNL     1      51.238  52.106  20.301  1.00  0.00    -0.019 A 
ATOM     25  C   UNL     1      50.416  51.514  19.361  1.00  0.00    +0.011 A 
ATOM     26  C   UNL     1      52.342  51.326  20.963  1.00  0.00    +0.037 C 
ATOM     27  C   UNL     1      50.508  50.098  18.882  1.00  0.00    +0.047 C 
ATOM     28  C   UNL     1      52.681  50.039  20.194  1.00  0.00    +0.005 C 
ATOM     29  C   UNL     1      51.411  49.269  19.808  1.00  0.00    +0.006 C 
BRANCH  22  30
ATOM     30  C   UNL     1      51.530  54.449  21.414  1.00  0.00    +0.251 C 
ATOM     31  O   UNL     1      51.936  55.552  21.065  1.00  0.00    -0.269 OA
ATOM     32  N   UNL     1      51.588  54.076  22.726  1.00  0.00    -0.365 N 
ATOM     33  H   UNL     1      51.848  54.815  23.367  1.00  0.00    +0.159 HD
ATOM     34  H   UNL     1      50.952  53.372  23.071  1.00  0.00    +0.159 HD
ENDBRANCH  22  30
ENDBRANCH  19  21
ENDBRANCH   6  17
TORSDOF 6
ENDMDL
