MODEL 1
REMARK VINA RESULT:    -8.996      0.000      0.000
REMARK INTER + INTRA:         -13.631
REMARK INTER:                 -12.678
REMARK INTRA:                  -0.953
REMARK UNBOUND:                -0.953
REMARK SMILES COC(=O)c1sc2cc(NC(=S)NNC(=O)[C@@H](C)Oc3ccc4c(c3)CCC4)ccc2c1Cl
REMARK SMILES IDX 13 1 11 2 12 3 10 4 14 7 15 8 16 9 17 11 18 12 19 13 20 14
REMARK SMILES IDX 21 15 25 16 22 17 24 18 23 19 26 20 28 21 27 22 9 23 29 24
REMARK SMILES IDX 8 25 30 26 7 27 31 28 6 29 32 30 5 31 33 32 3 33 4 34 2 35
REMARK SMILES IDX 1 36
REMARK H PARENT 13 5 10 6 14 10
ROOT
ATOM      1  N   UNL     1      48.543  57.334  19.300  1.00  0.00    -0.274 N 
ATOM      2  C   UNL     1      47.781  58.221  18.535  1.00  0.00    +0.189 C 
ATOM      3  S   UNL     1      47.469  57.939  16.911  1.00  0.00    -0.039 S 
ATOM      4  N   UNL     1      47.363  59.288  19.320  1.00  0.00    -0.331 N 
ATOM      5  H   UNL     1      48.585  57.395  20.315  1.00  0.00    +0.190 HD
ATOM      6  H   UNL     1      47.378  59.088  20.311  1.00  0.00    +0.169 HD
ENDROOT
BRANCH   1   7
ATOM      7  N   UNL     1      48.963  56.095  18.784  1.00  0.00    -0.265 N 
ATOM      8  C   UNL     1      50.249  55.681  19.095  1.00  0.00    +0.279 C 
ATOM      9  O   UNL     1      51.034  56.421  19.690  1.00  0.00    -0.269 OA
ATOM     10  H   UNL     1      48.223  55.428  18.562  1.00  0.00    +0.191 HD
BRANCH   8  11
ATOM     11  C   UNL     1      50.570  54.249  18.630  1.00  0.00    +0.260 C 
ATOM     12  C   UNL     1      51.962  53.847  19.106  1.00  0.00    +0.064 C 
BRANCH  11  13
ATOM     13  O   UNL     1      49.649  53.304  19.181  1.00  0.00    -0.481 OA
BRANCH  13  14
ATOM     14  C   UNL     1      49.201  52.429  18.228  1.00  0.00    +0.120 A 
ATOM     15  C   UNL     1      48.500  52.938  17.126  1.00  0.00    +0.047 A 
ATOM     16  C   UNL     1      49.385  51.057  18.404  1.00  0.00    +0.050 A 
ATOM     17  C   UNL     1      47.994  52.071  16.155  1.00  0.00    +0.008 A 
ATOM     18  C   UNL     1      48.894  50.208  17.427  1.00  0.00    -0.041 A 
ATOM     19  C   UNL     1      48.207  50.710  16.314  1.00  0.00    -0.045 A 
ATOM     20  C   UNL     1      48.934  48.712  17.398  1.00  0.00    +0.036 C 
ATOM     21  C   UNL     1      47.725  49.594  15.440  1.00  0.00    +0.036 C 
ATOM     22  C   UNL     1      48.610  48.437  15.922  1.00  0.00    +0.010 C 
ENDBRANCH  13  14
ENDBRANCH  11  13
ENDBRANCH   8  11
ENDBRANCH   1   7
BRANCH   4  23
ATOM     23  C   UNL     1      46.780  60.534  18.994  1.00  0.00    +0.042 A 
ATOM     24  C   UNL     1      47.589  61.437  18.305  1.00  0.00    +0.027 A 
ATOM     25  C   UNL     1      45.454  60.886  19.260  1.00  0.00    +0.045 A 
ATOM     26  C   UNL     1      47.109  62.694  17.915  1.00  0.00    +0.013 A 
ATOM     27  C   UNL     1      44.974  62.158  18.869  1.00  0.00    +0.039 A 
ATOM     28  C   UNL     1      45.776  63.080  18.201  1.00  0.00    +0.012 A 
ATOM     29  S   UNL     1      43.391  62.771  19.118  1.00  0.00    -0.127 S 
ATOM     30  C   UNL     1      45.050  64.297  17.916  1.00  0.00    +0.074 A 
ATOM     31  C   UNL     1      43.741  64.271  18.362  1.00  0.00    +0.132 A 
ATOM     32 Cl   UNL     1      45.830  65.598  17.097  1.00  0.00    -0.082 Cl
BRANCH  31  33
ATOM     33  C   UNL     1      42.668  65.249  18.302  1.00  0.00    +0.349 C 
ATOM     34  O   UNL     1      42.323  65.996  19.214  1.00  0.00    -0.245 OA
BRANCH  33  35
ATOM     35  O   UNL     1      42.064  65.241  17.080  1.00  0.00    -0.465 OA
ATOM     36  C   UNL     1      42.318  66.400  16.285  1.00  0.00    +0.282 C 
ENDBRANCH  33  35
ENDBRANCH  31  33
ENDBRANCH   4  23
TORSDOF 7
ENDMDL
MODEL 2
REMARK VINA RESULT:    -8.405      1.713      2.640
REMARK INTER + INTRA:         -12.798
REMARK INTER:                 -12.092
REMARK INTRA:                  -0.705
REMARK UNBOUND:                -0.953
REMARK SMILES COC(=O)c1sc2cc(NC(=S)NNC(=O)[C@@H](C)Oc3ccc4c(c3)CCC4)ccc2c1Cl
REMARK SMILES IDX 13 1 11 2 12 3 10 4 14 7 15 8 16 9 17 11 18 12 19 13 20 14
REMARK SMILES IDX 21 15 25 16 22 17 24 18 23 19 26 20 28 21 27 22 9 23 29 24
REMARK SMILES IDX 8 25 30 26 7 27 31 28 6 29 32 30 5 31 33 32 3 33 4 34 2 35
REMARK SMILES IDX 1 36
REMARK H PARENT 13 5 10 6 14 10
ROOT
ATOM      1  N   UNL     1      48.246  58.361  20.092  1.00  0.00    -0.274 N 
ATOM      2  C   UNL     1      47.510  59.087  19.153  1.00  0.00    +0.189 C 
ATOM      3  S   UNL     1      47.464  58.643  17.535  1.00  0.00    -0.039 S 
ATOM      4  N   UNL     1      46.872  60.155  19.772  1.00  0.00    -0.331 N 
ATOM      5  H   UNL     1      48.137  58.506  21.094  1.00  0.00    +0.190 HD
ATOM      6  H   UNL     1      46.767  60.036  20.771  1.00  0.00    +0.169 HD
ENDROOT
BRANCH   1   7
ATOM      7  N   UNL     1      48.867  57.144  19.755  1.00  0.00    -0.265 N 
ATOM      8  C   UNL     1      50.174  56.960  20.178  1.00  0.00    +0.279 C 
ATOM      9  O   UNL     1      50.808  57.870  20.716  1.00  0.00    -0.269 OA
ATOM     10  H   UNL     1      48.242  56.357  19.582  1.00  0.00    +0.191 HD
BRANCH   8  11
ATOM     11  C   UNL     1      50.720  55.546  19.911  1.00  0.00    +0.260 C 
ATOM     12  C   UNL     1      52.120  55.633  19.313  1.00  0.00    +0.064 C 
BRANCH  11  13
ATOM     13  O   UNL     1      50.826  54.792  21.122  1.00  0.00    -0.481 OA
BRANCH  13  14
ATOM     14  C   UNL     1      50.856  53.447  20.872  1.00  0.00    +0.120 A 
ATOM     15  C   UNL     1      51.623  52.625  21.708  1.00  0.00    +0.047 A 
ATOM     16  C   UNL     1      50.190  52.933  19.758  1.00  0.00    +0.050 A 
ATOM     17  C   UNL     1      51.709  51.254  21.458  1.00  0.00    +0.008 A 
ATOM     18  C   UNL     1      50.268  51.570  19.530  1.00  0.00    -0.041 A 
ATOM     19  C   UNL     1      51.019  50.740  20.371  1.00  0.00    -0.045 A 
ATOM     20  C   UNL     1      49.674  50.787  18.400  1.00  0.00    +0.036 C 
ATOM     21  C   UNL     1      50.996  49.325  19.879  1.00  0.00    +0.036 C 
ATOM     22  C   UNL     1      49.778  49.355  18.946  1.00  0.00    +0.010 C 
ENDBRANCH  13  14
ENDBRANCH  11  13
ENDBRANCH   8  11
ENDBRANCH   1   7
BRANCH   4  23
ATOM     23  C   UNL     1      46.209  61.292  19.256  1.00  0.00    +0.042 A 
ATOM     24  C   UNL     1      47.020  62.299  18.731  1.00  0.00    +0.027 A 
ATOM     25  C   UNL     1      44.823  61.441  19.184  1.00  0.00    +0.045 A 
ATOM     26  C   UNL     1      46.472  63.462  18.177  1.00  0.00    +0.013 A 
ATOM     27  C   UNL     1      44.271  62.620  18.628  1.00  0.00    +0.039 A 
ATOM     28  C   UNL     1      45.067  63.644  18.122  1.00  0.00    +0.012 A 
ATOM     29  S   UNL     1      42.603  62.987  18.467  1.00  0.00    -0.127 S 
ATOM     30  C   UNL     1      44.263  64.732  17.613  1.00  0.00    +0.074 A 
ATOM     31  C   UNL     1      42.903  64.512  17.740  1.00  0.00    +0.132 A 
ATOM     32 Cl   UNL     1      45.019  66.125  16.937  1.00  0.00    -0.082 Cl
BRANCH  31  33
ATOM     33  C   UNL     1      41.745  65.314  17.380  1.00  0.00    +0.349 C 
ATOM     34  O   UNL     1      41.406  65.616  16.239  1.00  0.00    -0.245 OA
BRANCH  33  35
ATOM     35  O   UNL     1      41.059  65.710  18.489  1.00  0.00    -0.465 OA
ATOM     36  C   UNL     1      40.670  67.085  18.486  1.00  0.00    +0.282 C 
ENDBRANCH  33  35
ENDBRANCH  31  33
ENDBRANCH   4  23
TORSDOF 7
ENDMDL
MODEL 3
REMARK VINA RESULT:    -8.267      2.557      5.043
REMARK INTER + INTRA:         -12.603
REMARK INTER:                 -12.440
REMARK INTRA:                  -0.163
REMARK UNBOUND:                -0.953
REMARK SMILES COC(=O)c1sc2cc(NC(=S)NNC(=O)[C@@H](C)Oc3ccc4c(c3)CCC4)ccc2c1Cl
REMARK SMILES IDX 13 1 11 2 12 3 10 4 14 7 15 8 16 9 17 11 18 12 19 13 20 14
REMARK SMILES IDX 21 15 25 16 22 17 24 18 23 19 26 20 28 21 27 22 9 23 29 24
REMARK SMILES IDX 8 25 30 26 7 27 31 28 6 29 32 30 5 31 33 32 3 33 4 34 2 35
REMARK SMILES IDX 1 36
REMARK H PARENT 13 5 10 6 14 10
ROOT
ATOM      1  N   UNL     1      48.777  54.618  17.713  1.00  0.00    -0.274 N 
ATOM      2  C   UNL     1      48.412  55.891  18.159  1.00  0.00    +0.189 C 
ATOM      3  S   UNL     1      48.519  56.321  19.777  1.00  0.00    -0.039 S 
ATOM      4  N   UNL     1      47.986  56.665  17.087  1.00  0.00    -0.331 N 
ATOM      5  H   UNL     1      48.892  54.404  16.724  1.00  0.00    +0.190 HD
ATOM      6  H   UNL     1      48.316  56.329  16.192  1.00  0.00    +0.169 HD
ENDROOT
BRANCH   1   7
ATOM      7  N   UNL     1      49.385  53.686  18.573  1.00  0.00    -0.265 N 
ATOM      8  C   UNL     1      49.695  52.442  18.045  1.00  0.00    +0.279 C 
ATOM      9  O   UNL     1      49.340  52.122  16.909  1.00  0.00    -0.269 OA
ATOM     10  H   UNL     1      49.896  54.075  19.366  1.00  0.00    +0.191 HD
BRANCH   8  11
ATOM     11  C   UNL     1      50.500  51.544  19.001  1.00  0.00    +0.260 C 
ATOM     12  C   UNL     1      50.592  50.131  18.434  1.00  0.00    +0.064 C 
BRANCH  11  13
ATOM     13  O   UNL     1      51.839  52.021  19.159  1.00  0.00    -0.481 OA
BRANCH  13  14
ATOM     14  C   UNL     1      51.892  53.083  20.021  1.00  0.00    +0.120 A 
ATOM     15  C   UNL     1      51.465  52.897  21.342  1.00  0.00    +0.047 A 
ATOM     16  C   UNL     1      52.297  54.335  19.556  1.00  0.00    +0.050 A 
ATOM     17  C   UNL     1      51.468  53.968  22.238  1.00  0.00    +0.008 A 
ATOM     18  C   UNL     1      52.311  55.386  20.457  1.00  0.00    -0.041 A 
ATOM     19  C   UNL     1      51.902  55.204  21.783  1.00  0.00    -0.045 A 
ATOM     20  C   UNL     1      52.670  56.816  20.201  1.00  0.00    +0.036 C 
ATOM     21  C   UNL     1      51.950  56.498  22.536  1.00  0.00    +0.036 C 
ATOM     22  C   UNL     1      52.871  57.331  21.635  1.00  0.00    +0.010 C 
ENDBRANCH  13  14
ENDBRANCH  11  13
ENDBRANCH   8  11
ENDBRANCH   1   7
BRANCH   4  23
ATOM     23  C   UNL     1      47.317  57.909  17.023  1.00  0.00    +0.042 A 
ATOM     24  C   UNL     1      46.371  58.054  16.008  1.00  0.00    +0.027 A 
ATOM     25  C   UNL     1      47.495  58.956  17.930  1.00  0.00    +0.045 A 
ATOM     26  C   UNL     1      45.636  59.237  15.860  1.00  0.00    +0.013 A 
ATOM     27  C   UNL     1      46.754  60.152  17.776  1.00  0.00    +0.039 A 
ATOM     28  C   UNL     1      45.824  60.321  16.753  1.00  0.00    +0.012 A 
ATOM     29  S   UNL     1      46.845  61.544  18.775  1.00  0.00    -0.127 S 
ATOM     30  C   UNL     1      45.205  61.626  16.817  1.00  0.00    +0.074 A 
ATOM     31  C   UNL     1      45.668  62.400  17.866  1.00  0.00    +0.132 A 
ATOM     32 Cl   UNL     1      44.019  62.080  15.652  1.00  0.00    -0.082 Cl
BRANCH  31  33
ATOM     33  C   UNL     1      45.343  63.747  18.304  1.00  0.00    +0.349 C 
ATOM     34  O   UNL     1      44.558  64.042  19.201  1.00  0.00    -0.245 OA
BRANCH  33  35
ATOM     35  O   UNL     1      46.028  64.678  17.581  1.00  0.00    -0.465 OA
ATOM     36  C   UNL     1      45.247  65.799  17.166  1.00  0.00    +0.282 C 
ENDBRANCH  33  35
ENDBRANCH  31  33
ENDBRANCH   4  23
TORSDOF 7
ENDMDL
MODEL 4
REMARK VINA RESULT:    -8.140      2.294      3.290
REMARK INTER + INTRA:         -12.424
REMARK INTER:                 -13.144
REMARK INTRA:                   0.719
REMARK UNBOUND:                -0.953
REMARK SMILES COC(=O)c1sc2cc(NC(=S)NNC(=O)[C@@H](C)Oc3ccc4c(c3)CCC4)ccc2c1Cl
REMARK SMILES IDX 13 1 11 2 12 3 10 4 14 7 15 8 16 9 17 11 18 12 19 13 20 14
REMARK SMILES IDX 21 15 25 16 22 17 24 18 23 19 26 20 28 21 27 22 9 23 29 24
REMARK SMILES IDX 8 25 30 26 7 27 31 28 6 29 32 30 5 31 33 32 3 33 4 34 2 35
REMARK SMILES IDX 1 36
REMARK H PARENT 13 5 10 6 14 10
ROOT
ATOM      1  N   UNL     1      49.396  54.862  18.648  1.00  0.00    -0.274 N 
ATOM      2  C   UNL     1      48.875  56.108  19.008  1.00  0.00    +0.189 C 
ATOM      3  S   UNL     1      48.781  56.593  20.611  1.00  0.00    -0.039 S 
ATOM      4  N   UNL     1      48.490  56.808  17.871  1.00  0.00    -0.331 N 
ATOM      5  H   UNL     1      49.628  54.631  17.683  1.00  0.00    +0.190 HD
ATOM      6  H   UNL     1      48.936  56.478  17.026  1.00  0.00    +0.169 HD
ENDROOT
BRANCH   1   7
ATOM      7  N   UNL     1      49.997  54.016  19.597  1.00  0.00    -0.265 N 
ATOM      8  C   UNL     1      51.342  53.728  19.430  1.00  0.00    +0.279 C 
ATOM      9  O   UNL     1      51.956  54.093  18.426  1.00  0.00    -0.269 OA
ATOM     10  H   UNL     1      49.551  53.985  20.515  1.00  0.00    +0.191 HD
BRANCH   8  11
ATOM     11  C   UNL     1      51.957  52.932  20.596  1.00  0.00    +0.260 C 
ATOM     12  C   UNL     1      50.919  52.735  21.696  1.00  0.00    +0.064 C 
BRANCH  11  13
ATOM     13  O   UNL     1      52.376  51.631  20.175  1.00  0.00    -0.481 OA
BRANCH  13  14
ATOM     14  C   UNL     1      51.306  50.847  19.838  1.00  0.00    +0.120 A 
ATOM     15  C   UNL     1      50.960  49.784  20.682  1.00  0.00    +0.047 A 
ATOM     16  C   UNL     1      50.631  51.073  18.637  1.00  0.00    +0.050 A 
ATOM     17  C   UNL     1      49.899  48.939  20.349  1.00  0.00    +0.008 A 
ATOM     18  C   UNL     1      49.570  50.240  18.325  1.00  0.00    -0.041 A 
ATOM     19  C   UNL     1      49.208  49.185  19.172  1.00  0.00    -0.045 A 
ATOM     20  C   UNL     1      48.715  50.254  17.097  1.00  0.00    +0.036 C 
ATOM     21  C   UNL     1      48.077  48.398  18.586  1.00  0.00    +0.036 C 
ATOM     22  C   UNL     1      47.529  49.390  17.552  1.00  0.00    +0.010 C 
ENDBRANCH  13  14
ENDBRANCH  11  13
ENDBRANCH   8  11
ENDBRANCH   1   7
BRANCH   4  23
ATOM     23  C   UNL     1      47.721  57.982  17.696  1.00  0.00    +0.042 A 
ATOM     24  C   UNL     1      46.873  58.008  16.589  1.00  0.00    +0.027 A 
ATOM     25  C   UNL     1      47.713  59.066  18.576  1.00  0.00    +0.045 A 
ATOM     26  C   UNL     1      46.052  59.113  16.327  1.00  0.00    +0.013 A 
ATOM     27  C   UNL     1      46.886  60.183  18.306  1.00  0.00    +0.039 A 
ATOM     28  C   UNL     1      46.051  60.235  17.192  1.00  0.00    +0.012 A 
ATOM     29  S   UNL     1      46.751  61.605  19.256  1.00  0.00    -0.127 S 
ATOM     30  C   UNL     1      45.314  61.478  17.147  1.00  0.00    +0.074 A 
ATOM     31  C   UNL     1      45.599  62.321  18.205  1.00  0.00    +0.132 A 
ATOM     32 Cl   UNL     1      44.214  61.785  15.856  1.00  0.00    -0.082 Cl
BRANCH  31  33
ATOM     33  C   UNL     1      45.112  63.644  18.559  1.00  0.00    +0.349 C 
ATOM     34  O   UNL     1      44.488  63.932  19.577  1.00  0.00    -0.245 OA
BRANCH  33  35
ATOM     35  O   UNL     1      45.432  64.558  17.600  1.00  0.00    -0.465 OA
ATOM     36  C   UNL     1      46.833  64.696  17.357  1.00  0.00    +0.282 C 
ENDBRANCH  33  35
ENDBRANCH  31  33
ENDBRANCH   4  23
TORSDOF 7
ENDMDL
MODEL 5
REMARK VINA RESULT:    -8.109      3.853     12.833
REMARK INTER + INTRA:         -12.381
REMARK INTER:                 -11.711
REMARK INTRA:                  -0.670
REMARK UNBOUND:                -0.953
REMARK SMILES COC(=O)c1sc2cc(NC(=S)NNC(=O)[C@@H](C)Oc3ccc4c(c3)CCC4)ccc2c1Cl
REMARK SMILES IDX 13 1 11 2 12 3 10 4 14 7 15 8 16 9 17 11 18 12 19 13 20 14
REMARK SMILES IDX 21 15 25 16 22 17 24 18 23 19 26 20 28 21 27 22 9 23 29 24
REMARK SMILES IDX 8 25 30 26 7 27 31 28 6 29 32 30 5 31 33 32 3 33 4 34 2 35
REMARK SMILES IDX 1 36
REMARK H PARENT 13 5 10 6 14 10
ROOT
ATOM      1  N   UNL     1      47.787  59.202  18.015  1.00  0.00    -0.274 N 
ATOM      2  C   UNL     1      47.906  57.998  18.714  1.00  0.00    +0.189 C 
ATOM      3  S   UNL     1      47.631  57.907  20.366  1.00  0.00    -0.039 S 
ATOM      4  N   UNL     1      48.262  56.976  17.842  1.00  0.00    -0.331 N 
ATOM      5  H   UNL     1      47.770  59.237  16.997  1.00  0.00    +0.190 HD
ATOM      6  H   UNL     1      48.048  57.180  16.875  1.00  0.00    +0.169 HD
ENDROOT
BRANCH   1   7
ATOM      7  N   UNL     1      47.292  60.363  18.635  1.00  0.00    -0.265 N 
ATOM      8  C   UNL     1      46.266  61.038  17.992  1.00  0.00    +0.279 C 
ATOM      9  O   UNL     1      45.889  60.709  16.866  1.00  0.00    -0.269 OA
ATOM     10  H   UNL     1      47.423  60.422  19.645  1.00  0.00    +0.191 HD
BRANCH   8  11
ATOM     11  C   UNL     1      45.676  62.199  18.813  1.00  0.00    +0.260 C 
ATOM     12  C   UNL     1      46.639  62.590  19.929  1.00  0.00    +0.064 C 
BRANCH  11  13
ATOM     13  O   UNL     1      45.477  63.361  18.003  1.00  0.00    -0.481 OA
BRANCH  13  14
ATOM     14  C   UNL     1      44.265  63.944  18.254  1.00  0.00    +0.120 A 
ATOM     15  C   UNL     1      43.319  63.230  19.003  1.00  0.00    +0.047 A 
ATOM     16  C   UNL     1      43.968  65.193  17.707  1.00  0.00    +0.050 A 
ATOM     17  C   UNL     1      42.057  63.777  19.245  1.00  0.00    +0.008 A 
ATOM     18  C   UNL     1      42.720  65.733  17.967  1.00  0.00    -0.041 A 
ATOM     19  C   UNL     1      41.776  65.033  18.728  1.00  0.00    -0.045 A 
ATOM     20  C   UNL     1      42.154  67.029  17.476  1.00  0.00    +0.036 C 
ATOM     21  C   UNL     1      40.492  65.798  18.814  1.00  0.00    +0.036 C 
ATOM     22  C   UNL     1      40.958  67.207  18.423  1.00  0.00    +0.010 C 
ENDBRANCH  13  14
ENDBRANCH  11  13
ENDBRANCH   8  11
ENDBRANCH   1   7
BRANCH   4  23
ATOM     23  C   UNL     1      48.717  55.655  18.064  1.00  0.00    +0.042 A 
ATOM     24  C   UNL     1      48.257  54.683  17.175  1.00  0.00    +0.027 A 
ATOM     25  C   UNL     1      49.625  55.283  19.057  1.00  0.00    +0.045 A 
ATOM     26  C   UNL     1      48.656  53.345  17.289  1.00  0.00    +0.013 A 
ATOM     27  C   UNL     1      50.023  53.930  19.172  1.00  0.00    +0.039 A 
ATOM     28  C   UNL     1      49.554  52.943  18.308  1.00  0.00    +0.012 A 
ATOM     29  S   UNL     1      51.112  53.282  20.329  1.00  0.00    -0.127 S 
ATOM     30  C   UNL     1      50.111  51.650  18.637  1.00  0.00    +0.074 A 
ATOM     31  C   UNL     1      50.972  51.684  19.719  1.00  0.00    +0.132 A 
ATOM     32 Cl   UNL     1      49.678  50.261  17.713  1.00  0.00    -0.082 Cl
BRANCH  31  33
ATOM     33  C   UNL     1      51.739  50.649  20.391  1.00  0.00    +0.349 C 
ATOM     34  O   UNL     1      52.935  50.420  20.230  1.00  0.00    -0.245 OA
BRANCH  33  35
ATOM     35  O   UNL     1      50.954  49.933  21.246  1.00  0.00    -0.465 OA
ATOM     36  C   UNL     1      50.561  48.650  20.757  1.00  0.00    +0.282 C 
ENDBRANCH  33  35
ENDBRANCH  31  33
ENDBRANCH   4  23
TORSDOF 7
ENDMDL
