MODEL 1
REMARK VINA RESULT:    -7.486      0.000      0.000
REMARK INTER + INTRA:          -8.714
REMARK INTER:                  -8.581
REMARK INTRA:                  -0.133
REMARK UNBOUND:                -0.133
REMARK SMILES [NH2+]=C(NO)N/N=C/c1cccc(I)c1
REMARK SMILES IDX 5 1 2 2 1 3 3 4 6 9 7 10 8 11 10 12 9 13 11 14 12 15 14 16
REMARK SMILES IDX 13 17 4 18
REMARK H PARENT 5 5 1 6 1 7 3 8 4 19
ROOT
ATOM      1  N   UNL     1      52.490  51.781  19.467  1.00  0.00    -0.155 N 
ATOM      2  C   UNL     1      52.510  50.596  20.157  1.00  0.00    +0.393 C 
ATOM      3  N   UNL     1      52.396  50.599  21.493  1.00  0.00    -0.287 N 
ATOM      4  N   UNL     1      52.643  49.400  19.505  1.00  0.00    -0.143 N 
ATOM      5  H   UNL     1      52.577  51.762  18.455  1.00  0.00    +0.295 HD
ATOM      6  H   UNL     1      52.410  49.729  22.004  1.00  0.00    +0.256 HD
ATOM      7  H   UNL     1      52.299  51.490  21.961  1.00  0.00    +0.256 HD
ATOM      8  H   UNL     1      52.728  49.395  18.493  1.00  0.00    +0.301 HD
ENDROOT
BRANCH   1   9
ATOM      9  N   UNL     1      52.355  52.939  20.179  1.00  0.00    -0.121 NA
ATOM     10  C   UNL     1      51.208  53.531  20.043  1.00  0.00    +0.158 C 
BRANCH  10  11
ATOM     11  C   UNL     1      50.884  54.793  20.738  1.00  0.00    -0.003 A 
ATOM     12  C   UNL     1      51.318  56.440  22.454  1.00  0.00    +0.002 A 
ATOM     13  C   UNL     1      51.651  55.243  21.819  1.00  0.00    +0.010 A 
ATOM     14  C   UNL     1      50.224  57.186  22.013  1.00  0.00    +0.015 A 
ATOM     15  C   UNL     1      49.464  56.732  20.935  1.00  0.00    +0.014 A 
ATOM     16  C   UNL     1      49.787  55.537  20.291  1.00  0.00    +0.024 A 
ATOM     17  I   UNL     1      47.835  57.846  20.280  1.00  0.00    -0.044 I 
ENDBRANCH  10  11
ENDBRANCH   1   9
BRANCH   4  18
ATOM     18  O   UNL     1      52.661  48.159  20.253  1.00  0.00    -0.235 OA
ATOM     19  H   UNL     1      53.384  47.634  19.851  1.00  0.00    +0.264 HD
ENDBRANCH   4  18
TORSDOF 3
ENDMDL
MODEL 2
REMARK VINA RESULT:    -6.774      6.370      7.914
REMARK INTER + INTRA:          -7.897
REMARK INTER:                  -7.726
REMARK INTRA:                  -0.171
REMARK UNBOUND:                -0.133
REMARK SMILES [NH2+]=C(NO)N/N=C/c1cccc(I)c1
REMARK SMILES IDX 5 1 2 2 1 3 3 4 6 9 7 10 8 11 10 12 9 13 11 14 12 15 14 16
REMARK SMILES IDX 13 17 4 18
REMARK H PARENT 5 5 1 6 1 7 3 8 4 19
ROOT
ATOM      1  N   UNL     1      50.684  49.865  18.422  1.00  0.00    -0.155 N 
ATOM      2  C   UNL     1      51.248  51.025  17.956  1.00  0.00    +0.393 C 
ATOM      3  N   UNL     1      50.467  51.995  17.460  1.00  0.00    -0.287 N 
ATOM      4  N   UNL     1      52.603  51.214  17.987  1.00  0.00    -0.143 N 
ATOM      5  H   UNL     1      51.289  49.140  18.795  1.00  0.00    +0.295 HD
ATOM      6  H   UNL     1      50.879  52.850  17.115  1.00  0.00    +0.256 HD
ATOM      7  H   UNL     1      49.468  51.842  17.443  1.00  0.00    +0.256 HD
ATOM      8  H   UNL     1      53.197  50.481  18.363  1.00  0.00    +0.301 HD
ENDROOT
BRANCH   1   9
ATOM      9  N   UNL     1      49.325  49.741  18.361  1.00  0.00    -0.121 NA
ATOM     10  C   UNL     1      48.903  48.614  17.874  1.00  0.00    +0.158 C 
BRANCH  10  11
ATOM     11  C   UNL     1      47.466  48.304  17.733  1.00  0.00    -0.003 A 
ATOM     12  C   UNL     1      45.292  47.848  18.687  1.00  0.00    +0.002 A 
ATOM     13  C   UNL     1      46.647  48.140  18.855  1.00  0.00    +0.010 A 
ATOM     14  C   UNL     1      44.757  47.719  17.405  1.00  0.00    +0.015 A 
ATOM     15  C   UNL     1      45.579  47.884  16.290  1.00  0.00    +0.014 A 
ATOM     16  C   UNL     1      46.935  48.177  16.445  1.00  0.00    +0.024 A 
ATOM     17  I   UNL     1      44.780  47.693  14.381  1.00  0.00    -0.044 I 
ENDBRANCH  10  11
ENDBRANCH   1   9
BRANCH   4  18
ATOM     18  O   UNL     1      53.180  52.447  17.489  1.00  0.00    -0.235 OA
ATOM     19  H   UNL     1      54.132  52.249  17.370  1.00  0.00    +0.264 HD
ENDBRANCH   4  18
TORSDOF 3
ENDMDL
MODEL 3
REMARK VINA RESULT:    -6.744      1.830      2.316
REMARK INTER + INTRA:          -7.863
REMARK INTER:                  -7.675
REMARK INTRA:                  -0.188
REMARK UNBOUND:                -0.133
REMARK SMILES [NH2+]=C(NO)N/N=C/c1cccc(I)c1
REMARK SMILES IDX 5 1 2 2 1 3 3 4 6 9 7 10 8 11 10 12 9 13 11 14 12 15 14 16
REMARK SMILES IDX 13 17 4 18
REMARK H PARENT 5 5 1 6 1 7 3 8 4 19
ROOT
ATOM      1  N   UNL     1      51.044  50.948  19.397  1.00  0.00    -0.155 N 
ATOM      2  C   UNL     1      51.184  49.958  20.336  1.00  0.00    +0.393 C 
ATOM      3  N   UNL     1      51.253  50.275  21.636  1.00  0.00    -0.287 N 
ATOM      4  N   UNL     1      51.255  48.641  19.969  1.00  0.00    -0.143 N 
ATOM      5  H   UNL     1      50.993  50.692  18.416  1.00  0.00    +0.295 HD
ATOM      6  H   UNL     1      51.356  49.549  22.330  1.00  0.00    +0.256 HD
ATOM      7  H   UNL     1      51.200  51.252  21.893  1.00  0.00    +0.256 HD
ATOM      8  H   UNL     1      51.202  48.399  18.984  1.00  0.00    +0.301 HD
ENDROOT
BRANCH   1   9
ATOM      9  N   UNL     1      50.981  52.242  19.831  1.00  0.00    -0.121 NA
ATOM     10  C   UNL     1      49.920  52.891  19.458  1.00  0.00    +0.158 C 
BRANCH  10  11
ATOM     11  C   UNL     1      49.683  54.298  19.834  1.00  0.00    -0.003 A 
ATOM     12  C   UNL     1      48.237  56.226  20.027  1.00  0.00    +0.002 A 
ATOM     13  C   UNL     1      48.428  54.893  19.661  1.00  0.00    +0.010 A 
ATOM     14  C   UNL     1      49.294  56.964  20.563  1.00  0.00    +0.015 A 
ATOM     15  C   UNL     1      50.542  56.365  20.733  1.00  0.00    +0.014 A 
ATOM     16  C   UNL     1      50.745  55.032  20.371  1.00  0.00    +0.024 A 
ATOM     17  I   UNL     1      52.114  57.465  21.532  1.00  0.00    -0.044 I 
ENDBRANCH  10  11
ENDBRANCH   1   9
BRANCH   4  18
ATOM     18  O   UNL     1      51.402  47.610  20.976  1.00  0.00    -0.235 OA
ATOM     19  H   UNL     1      52.002  46.949  20.572  1.00  0.00    +0.264 HD
ENDBRANCH   4  18
TORSDOF 3
ENDMDL
MODEL 4
REMARK VINA RESULT:    -6.383      3.142      3.520
REMARK INTER + INTRA:          -7.450
REMARK INTER:                  -7.288
REMARK INTRA:                  -0.162
REMARK UNBOUND:                -0.133
REMARK SMILES [NH2+]=C(NO)N/N=C/c1cccc(I)c1
REMARK SMILES IDX 5 1 2 2 1 3 3 4 6 9 7 10 8 11 10 12 9 13 11 14 12 15 14 16
REMARK SMILES IDX 13 17 4 18
REMARK H PARENT 5 5 1 6 1 7 3 8 4 19
ROOT
ATOM      1  N   UNL     1      49.650  51.148  16.653  1.00  0.00    -0.155 N 
ATOM      2  C   UNL     1      50.574  50.360  16.017  1.00  0.00    +0.393 C 
ATOM      3  N   UNL     1      51.862  50.410  16.385  1.00  0.00    -0.287 N 
ATOM      4  N   UNL     1      50.205  49.514  15.006  1.00  0.00    -0.143 N 
ATOM      5  H   UNL     1      48.678  51.098  16.363  1.00  0.00    +0.295 HD
ATOM      6  H   UNL     1      52.545  49.831  15.919  1.00  0.00    +0.256 HD
ATOM      7  H   UNL     1      52.121  51.040  17.133  1.00  0.00    +0.256 HD
ATOM      8  H   UNL     1      49.230  49.473  14.726  1.00  0.00    +0.301 HD
ENDROOT
BRANCH   1   9
ATOM      9  N   UNL     1      50.086  51.971  17.654  1.00  0.00    -0.121 NA
ATOM     10  C   UNL     1      49.228  52.869  18.032  1.00  0.00    +0.158 C 
BRANCH  10  11
ATOM     11  C   UNL     1      49.526  53.843  19.101  1.00  0.00    -0.003 A 
ATOM     12  C   UNL     1      50.810  54.558  21.020  1.00  0.00    +0.002 A 
ATOM     13  C   UNL     1      50.555  53.617  20.022  1.00  0.00    +0.010 A 
ATOM     14  C   UNL     1      50.043  55.721  21.100  1.00  0.00    +0.015 A 
ATOM     15  C   UNL     1      49.018  55.941  20.178  1.00  0.00    +0.014 A 
ATOM     16  C   UNL     1      48.754  55.007  19.175  1.00  0.00    +0.024 A 
ATOM     17  I   UNL     1      47.877  57.674  20.298  1.00  0.00    -0.044 I 
ENDBRANCH  10  11
ENDBRANCH   1   9
BRANCH   4  18
ATOM     18  O   UNL     1      51.197  48.688  14.347  1.00  0.00    -0.235 OA
ATOM     19  H   UNL     1      51.938  49.297  14.147  1.00  0.00    +0.264 HD
ENDBRANCH   4  18
TORSDOF 3
ENDMDL
MODEL 5
REMARK VINA RESULT:    -6.281      4.618      6.182
REMARK INTER + INTRA:          -7.332
REMARK INTER:                  -7.181
REMARK INTRA:                  -0.152
REMARK UNBOUND:                -0.133
REMARK SMILES [NH2+]=C(NO)N/N=C/c1cccc(I)c1
REMARK SMILES IDX 5 1 2 2 1 3 3 4 6 9 7 10 8 11 10 12 9 13 11 14 12 15 14 16
REMARK SMILES IDX 13 17 4 18
REMARK H PARENT 5 5 1 6 1 7 3 8 4 19
ROOT
ATOM      1  N   UNL     1      52.765  56.407  20.413  1.00  0.00    -0.155 N 
ATOM      2  C   UNL     1      52.641  57.281  21.462  1.00  0.00    +0.393 C 
ATOM      3  N   UNL     1      51.880  56.956  22.516  1.00  0.00    -0.287 N 
ATOM      4  N   UNL     1      53.285  58.489  21.456  1.00  0.00    -0.143 N 
ATOM      5  H   UNL     1      53.346  56.667  19.622  1.00  0.00    +0.295 HD
ATOM      6  H   UNL     1      51.786  57.597  23.291  1.00  0.00    +0.256 HD
ATOM      7  H   UNL     1      51.409  56.061  22.508  1.00  0.00    +0.256 HD
ATOM      8  H   UNL     1      53.863  58.736  20.659  1.00  0.00    +0.301 HD
ENDROOT
BRANCH   1   9
ATOM      9  N   UNL     1      52.095  55.218  20.483  1.00  0.00    -0.121 NA
ATOM     10  C   UNL     1      52.105  54.521  19.388  1.00  0.00    +0.158 C 
BRANCH  10  11
ATOM     11  C   UNL     1      51.433  53.211  19.279  1.00  0.00    -0.003 A 
ATOM     12  C   UNL     1      51.128  50.920  19.987  1.00  0.00    +0.002 A 
ATOM     13  C   UNL     1      51.783  52.146  20.116  1.00  0.00    +0.010 A 
ATOM     14  C   UNL     1      50.127  50.758  19.028  1.00  0.00    +0.015 A 
ATOM     15  C   UNL     1      49.783  51.825  18.197  1.00  0.00    +0.014 A 
ATOM     16  C   UNL     1      50.431  53.055  18.316  1.00  0.00    +0.024 A 
ATOM     17  I   UNL     1      48.292  51.581  16.769  1.00  0.00    -0.044 I 
ENDBRANCH  10  11
ENDBRANCH   1   9
BRANCH   4  18
ATOM     18  O   UNL     1      53.141  59.399  22.574  1.00  0.00    -0.235 OA
ATOM     19  H   UNL     1      53.283  60.290  22.193  1.00  0.00    +0.264 HD
ENDBRANCH   4  18
TORSDOF 3
ENDMDL
