MODEL 1
REMARK VINA RESULT:    -9.750      0.000      0.000
REMARK INTER + INTRA:         -14.674
REMARK INTER:                 -14.310
REMARK INTRA:                  -0.364
REMARK UNBOUND:                -0.364
REMARK SMILES O=C(COc1ccc(OC(F)(F)F)cc1)NNC(=S)Nc1cccc(C(F)(F)F)c1
REMARK SMILES IDX 3 1 2 2 16 3 1 4 17 6 20 7 18 8 19 9 21 12 23 13 24 14 22 15
REMARK SMILES IDX 25 16 30 17 26 18 27 19 28 20 29 21 4 22 5 23 6 24 15 25
REMARK SMILES IDX 7 26 14 27 8 28 9 29 10 30 11 31 12 32 13 33
REMARK H PARENT 16 5 20 10 17 11
ROOT
ATOM      1  C   UNL     1      50.694  50.024  15.298  1.00  0.00    +0.331 C 
ENDROOT
BRANCH   1   2
ATOM      2  C   UNL     1      50.074  50.668  16.533  1.00  0.00    +0.276 C 
ATOM      3  N   UNL     1      50.643  50.268  17.729  1.00  0.00    -0.265 N 
ATOM      4  O   UNL     1      49.117  51.440  16.479  1.00  0.00    -0.269 OA
ATOM      5  H   UNL     1      51.593  49.890  17.706  1.00  0.00    +0.191 HD
BRANCH   3   6
ATOM      6  N   UNL     1      50.282  50.988  18.887  1.00  0.00    -0.274 N 
ATOM      7  N   UNL     1      50.346  52.763  20.312  1.00  0.00    -0.331 N 
ATOM      8  C   UNL     1      50.980  52.149  19.238  1.00  0.00    +0.189 C 
ATOM      9  S   UNL     1      52.412  52.599  18.492  1.00  0.00    -0.039 S 
ATOM     10  H   UNL     1      49.785  52.120  20.859  1.00  0.00    +0.169 HD
ATOM     11  H   UNL     1      49.278  50.967  19.070  1.00  0.00    +0.190 HD
BRANCH   7  12
ATOM     12  C   UNL     1      50.513  54.038  20.895  1.00  0.00    +0.041 A 
ATOM     13  C   UNL     1      51.797  55.403  22.448  1.00  0.00    +0.003 A 
ATOM     14  C   UNL     1      50.969  56.492  22.189  1.00  0.00    +0.013 A 
ATOM     15  C   UNL     1      51.563  54.183  21.812  1.00  0.00    +0.026 A 
ATOM     16  C   UNL     1      49.889  56.363  21.307  1.00  0.00    +0.058 A 
ATOM     17  C   UNL     1      49.671  55.127  20.665  1.00  0.00    +0.039 A 
BRANCH  16  18
ATOM     18  C   UNL     1      48.984  57.536  21.022  1.00  0.00    +0.416 C 
ATOM     19  F   UNL     1      47.700  57.169  20.753  1.00  0.00    -0.166 F 
ATOM     20  F   UNL     1      48.906  58.413  22.063  1.00  0.00    -0.166 F 
ATOM     21  F   UNL     1      49.400  58.265  19.952  1.00  0.00    -0.166 F 
ENDBRANCH  16  18
ENDBRANCH   7  12
ENDBRANCH   3   6
ENDBRANCH   1   2
BRANCH   1  22
ATOM     22  O   UNL     1      49.691  49.338  14.552  1.00  0.00    -0.484 OA
BRANCH  22  23
ATOM     23  C   UNL     1      48.738  48.666  15.264  1.00  0.00    +0.120 A 
ATOM     24  C   UNL     1      47.428  49.083  15.022  1.00  0.00    +0.050 A 
ATOM     25  C   UNL     1      48.963  47.633  16.169  1.00  0.00    +0.050 A 
ATOM     26  C   UNL     1      46.348  48.481  15.677  1.00  0.00    +0.050 A 
ATOM     27  C   UNL     1      47.884  47.029  16.821  1.00  0.00    +0.050 A 
ATOM     28  C   UNL     1      46.571  47.446  16.583  1.00  0.00    +0.129 A 
BRANCH  28  29
ATOM     29  O   UNL     1      45.623  46.764  17.289  1.00  0.00    -0.406 OA
BRANCH  29  30
ATOM     30  C   UNL     1      45.072  47.394  18.434  1.00  0.00    +0.573 C 
ATOM     31  F   UNL     1      46.014  48.083  19.111  1.00  0.00    -0.132 F 
ATOM     32  F   UNL     1      44.493  46.492  19.255  1.00  0.00    -0.132 F 
ATOM     33  F   UNL     1      44.121  48.267  18.032  1.00  0.00    -0.132 F 
ENDBRANCH  29  30
ENDBRANCH  28  29
ENDBRANCH  22  23
ENDBRANCH   1  22
TORSDOF 8
ENDMDL
MODEL 2
REMARK VINA RESULT:    -9.677      3.190      9.487
REMARK INTER + INTRA:         -14.566
REMARK INTER:                 -13.546
REMARK INTRA:                  -1.020
REMARK UNBOUND:                -0.364
REMARK SMILES O=C(COc1ccc(OC(F)(F)F)cc1)NNC(=S)Nc1cccc(C(F)(F)F)c1
REMARK SMILES IDX 3 1 2 2 16 3 1 4 17 6 20 7 18 8 19 9 21 12 23 13 24 14 22 15
REMARK SMILES IDX 25 16 30 17 26 18 27 19 28 20 29 21 4 22 5 23 6 24 15 25
REMARK SMILES IDX 7 26 14 27 8 28 9 29 10 30 11 31 12 32 13 33
REMARK H PARENT 16 5 20 10 17 11
ROOT
ATOM      1  C   UNL     1      52.731  50.781  20.464  1.00  0.00    +0.331 C 
ENDROOT
BRANCH   1   2
ATOM      2  C   UNL     1      51.416  50.030  20.291  1.00  0.00    +0.276 C 
ATOM      3  N   UNL     1      51.144  49.652  18.988  1.00  0.00    -0.265 N 
ATOM      4  O   UNL     1      50.635  49.820  21.218  1.00  0.00    -0.269 OA
ATOM      5  H   UNL     1      51.930  49.572  18.338  1.00  0.00    +0.191 HD
BRANCH   3   6
ATOM      6  N   UNL     1      50.069  48.760  18.786  1.00  0.00    -0.274 N 
ATOM      7  N   UNL     1      48.048  48.127  17.951  1.00  0.00    -0.331 N 
ATOM      8  C   UNL     1      48.887  49.209  18.187  1.00  0.00    +0.189 C 
ATOM      9  S   UNL     1      48.571  50.835  17.925  1.00  0.00    -0.039 S 
ATOM     10  H   UNL     1      48.241  47.338  18.558  1.00  0.00    +0.169 HD
ATOM     11  H   UNL     1      50.378  47.811  18.570  1.00  0.00    +0.190 HD
BRANCH   7  12
ATOM     12  C   UNL     1      46.863  48.007  17.193  1.00  0.00    +0.041 A 
ATOM     13  C   UNL     1      44.464  47.603  17.235  1.00  0.00    +0.003 A 
ATOM     14  C   UNL     1      44.415  47.693  15.846  1.00  0.00    +0.013 A 
ATOM     15  C   UNL     1      45.682  47.750  17.900  1.00  0.00    +0.026 A 
ATOM     16  C   UNL     1      45.588  47.910  15.112  1.00  0.00    +0.058 A 
ATOM     17  C   UNL     1      46.809  48.065  15.799  1.00  0.00    +0.039 A 
BRANCH  16  18
ATOM     18  C   UNL     1      45.547  48.006  13.607  1.00  0.00    +0.416 C 
ATOM     19  F   UNL     1      45.693  46.801  12.989  1.00  0.00    -0.166 F 
ATOM     20  F   UNL     1      44.374  48.520  13.139  1.00  0.00    -0.166 F 
ATOM     21  F   UNL     1      46.528  48.806  13.110  1.00  0.00    -0.166 F 
ENDBRANCH  16  18
ENDBRANCH   7  12
ENDBRANCH   3   6
ENDBRANCH   1   2
BRANCH   1  22
ATOM     22  O   UNL     1      52.711  51.980  19.693  1.00  0.00    -0.484 OA
BRANCH  22  23
ATOM     23  C   UNL     1      52.284  53.116  20.321  1.00  0.00    +0.120 A 
ATOM     24  C   UNL     1      52.357  54.274  19.545  1.00  0.00    +0.050 A 
ATOM     25  C   UNL     1      51.794  53.203  21.621  1.00  0.00    +0.050 A 
ATOM     26  C   UNL     1      51.949  55.511  20.055  1.00  0.00    +0.050 A 
ATOM     27  C   UNL     1      51.384  54.439  22.131  1.00  0.00    +0.050 A 
ATOM     28  C   UNL     1      51.457  55.600  21.356  1.00  0.00    +0.129 A 
BRANCH  28  29
ATOM     29  O   UNL     1      51.020  56.729  21.986  1.00  0.00    -0.406 OA
BRANCH  29  30
ATOM     30  C   UNL     1      49.836  57.340  21.501  1.00  0.00    +0.573 C 
ATOM     31  F   UNL     1      49.315  58.184  22.415  1.00  0.00    -0.132 F 
ATOM     32  F   UNL     1      48.914  56.414  21.162  1.00  0.00    -0.132 F 
ATOM     33  F   UNL     1      50.140  58.055  20.395  1.00  0.00    -0.132 F 
ENDBRANCH  29  30
ENDBRANCH  28  29
ENDBRANCH  22  23
ENDBRANCH   1  22
TORSDOF 8
ENDMDL
MODEL 3
REMARK VINA RESULT:    -9.600      3.218      9.307
REMARK INTER + INTRA:         -14.453
REMARK INTER:                 -13.730
REMARK INTRA:                  -0.723
REMARK UNBOUND:                -0.364
REMARK SMILES O=C(COc1ccc(OC(F)(F)F)cc1)NNC(=S)Nc1cccc(C(F)(F)F)c1
REMARK SMILES IDX 3 1 2 2 16 3 1 4 17 6 20 7 18 8 19 9 21 12 23 13 24 14 22 15
REMARK SMILES IDX 25 16 30 17 26 18 27 19 28 20 29 21 4 22 5 23 6 24 15 25
REMARK SMILES IDX 7 26 14 27 8 28 9 29 10 30 11 31 12 32 13 33
REMARK H PARENT 16 5 20 10 17 11
ROOT
ATOM      1  C   UNL     1      52.174  55.670  20.955  1.00  0.00    +0.331 C 
ENDROOT
BRANCH   1   2
ATOM      2  C   UNL     1      51.938  55.098  19.562  1.00  0.00    +0.276 C 
ATOM      3  N   UNL     1      51.781  53.724  19.529  1.00  0.00    -0.265 N 
ATOM      4  O   UNL     1      51.938  55.790  18.543  1.00  0.00    -0.269 OA
ATOM      5  H   UNL     1      51.486  53.255  20.390  1.00  0.00    +0.191 HD
BRANCH   3   6
ATOM      6  N   UNL     1      51.333  53.154  18.319  1.00  0.00    -0.274 N 
ATOM      7  N   UNL     1      50.187  51.650  17.051  1.00  0.00    -0.331 N 
ATOM      8  C   UNL     1      50.667  51.924  18.326  1.00  0.00    +0.189 C 
ATOM      9  S   UNL     1      50.597  50.945  19.686  1.00  0.00    -0.039 S 
ATOM     10  H   UNL     1      50.698  52.138  16.324  1.00  0.00    +0.169 HD
ATOM     11  H   UNL     1      51.026  53.854  17.642  1.00  0.00    +0.190 HD
BRANCH   7  12
ATOM     12  C   UNL     1      49.286  50.671  16.578  1.00  0.00    +0.041 A 
ATOM     13  C   UNL     1      48.853  48.953  14.910  1.00  0.00    +0.003 A 
ATOM     14  C   UNL     1      47.602  48.711  15.470  1.00  0.00    +0.013 A 
ATOM     15  C   UNL     1      49.683  49.934  15.456  1.00  0.00    +0.026 A 
ATOM     16  C   UNL     1      47.164  49.462  16.569  1.00  0.00    +0.058 A 
ATOM     17  C   UNL     1      48.018  50.441  17.114  1.00  0.00    +0.039 A 
BRANCH  16  18
ATOM     18  C   UNL     1      45.809  49.210  17.182  1.00  0.00    +0.416 C 
ATOM     19  F   UNL     1      44.934  48.616  16.324  1.00  0.00    -0.166 F 
ATOM     20  F   UNL     1      45.863  48.396  18.275  1.00  0.00    -0.166 F 
ATOM     21  F   UNL     1      45.207  50.355  17.602  1.00  0.00    -0.166 F 
ENDBRANCH  16  18
ENDBRANCH   7  12
ENDBRANCH   3   6
ENDBRANCH   1   2
BRANCH   1  22
ATOM     22  O   UNL     1      50.979  55.576  21.727  1.00  0.00    -0.484 OA
BRANCH  22  23
ATOM     23  C   UNL     1      49.963  56.432  21.406  1.00  0.00    +0.120 A 
ATOM     24  C   UNL     1      49.050  55.931  20.478  1.00  0.00    +0.050 A 
ATOM     25  C   UNL     1      49.773  57.712  21.920  1.00  0.00    +0.050 A 
ATOM     26  C   UNL     1      47.955  56.696  20.058  1.00  0.00    +0.050 A 
ATOM     27  C   UNL     1      48.678  58.475  21.504  1.00  0.00    +0.050 A 
ATOM     28  C   UNL     1      47.762  57.977  20.572  1.00  0.00    +0.129 A 
BRANCH  28  29
ATOM     29  O   UNL     1      46.745  58.832  20.263  1.00  0.00    -0.406 OA
BRANCH  29  30
ATOM     30  C   UNL     1      47.005  59.851  19.311  1.00  0.00    +0.573 C 
ATOM     31  F   UNL     1      47.366  61.002  19.916  1.00  0.00    -0.132 F 
ATOM     32  F   UNL     1      45.928  60.070  18.526  1.00  0.00    -0.132 F 
ATOM     33  F   UNL     1      48.027  59.453  18.521  1.00  0.00    -0.132 F 
ENDBRANCH  29  30
ENDBRANCH  28  29
ENDBRANCH  22  23
ENDBRANCH   1  22
TORSDOF 8
ENDMDL
MODEL 4
REMARK VINA RESULT:    -9.510      1.710      2.199
REMARK INTER + INTRA:         -14.321
REMARK INTER:                 -13.441
REMARK INTRA:                  -0.880
REMARK UNBOUND:                -0.364
REMARK SMILES O=C(COc1ccc(OC(F)(F)F)cc1)NNC(=S)Nc1cccc(C(F)(F)F)c1
REMARK SMILES IDX 3 1 2 2 16 3 1 4 17 6 20 7 18 8 19 9 21 12 23 13 24 14 22 15
REMARK SMILES IDX 25 16 30 17 26 18 27 19 28 20 29 21 4 22 5 23 6 24 15 25
REMARK SMILES IDX 7 26 14 27 8 28 9 29 10 30 11 31 12 32 13 33
REMARK H PARENT 16 5 20 10 17 11
ROOT
ATOM      1  C   UNL     1      50.741  48.901  14.402  1.00  0.00    +0.331 C 
ENDROOT
BRANCH   1   2
ATOM      2  C   UNL     1      51.571  49.936  15.151  1.00  0.00    +0.276 C 
ATOM      3  N   UNL     1      50.948  50.464  16.268  1.00  0.00    -0.265 N 
ATOM      4  O   UNL     1      52.680  50.311  14.772  1.00  0.00    -0.269 OA
ATOM      5  H   UNL     1      50.199  49.920  16.701  1.00  0.00    +0.191 HD
BRANCH   3   6
ATOM      6  N   UNL     1      51.737  51.249  17.136  1.00  0.00    -0.274 N 
ATOM      7  N   UNL     1      52.086  52.686  18.867  1.00  0.00    -0.331 N 
ATOM      8  C   UNL     1      51.128  52.154  18.012  1.00  0.00    +0.189 C 
ATOM      9  S   UNL     1      49.504  52.556  17.908  1.00  0.00    -0.039 S 
ATOM     10  H   UNL     1      53.024  52.641  18.485  1.00  0.00    +0.169 HD
ATOM     11  H   UNL     1      52.569  50.759  17.466  1.00  0.00    +0.190 HD
BRANCH   7  12
ATOM     12  C   UNL     1      51.968  53.457  20.044  1.00  0.00    +0.041 A 
ATOM     13  C   UNL     1      51.536  53.446  22.439  1.00  0.00    +0.003 A 
ATOM     14  C   UNL     1      51.654  54.833  22.476  1.00  0.00    +0.013 A 
ATOM     15  C   UNL     1      51.683  52.766  21.228  1.00  0.00    +0.026 A 
ATOM     16  C   UNL     1      51.900  55.551  21.299  1.00  0.00    +0.058 A 
ATOM     17  C   UNL     1      52.055  54.850  20.087  1.00  0.00    +0.039 A 
BRANCH  16  18
ATOM     18  C   UNL     1      52.026  57.054  21.327  1.00  0.00    +0.416 C 
ATOM     19  F   UNL     1      53.078  57.490  22.076  1.00  0.00    -0.166 F 
ATOM     20  F   UNL     1      52.206  57.597  20.089  1.00  0.00    -0.166 F 
ATOM     21  F   UNL     1      50.921  57.660  21.840  1.00  0.00    -0.166 F 
ENDBRANCH  16  18
ENDBRANCH   7  12
ENDBRANCH   3   6
ENDBRANCH   1   2
BRANCH   1  22
ATOM     22  O   UNL     1      49.376  49.311  14.358  1.00  0.00    -0.484 OA
BRANCH  22  23
ATOM     23  C   UNL     1      48.503  48.656  15.179  1.00  0.00    +0.120 A 
ATOM     24  C   UNL     1      47.171  49.048  15.046  1.00  0.00    +0.050 A 
ATOM     25  C   UNL     1      48.827  47.661  16.098  1.00  0.00    +0.050 A 
ATOM     26  C   UNL     1      46.164  48.459  15.820  1.00  0.00    +0.050 A 
ATOM     27  C   UNL     1      47.822  47.070  16.870  1.00  0.00    +0.050 A 
ATOM     28  C   UNL     1      46.486  47.462  16.739  1.00  0.00    +0.129 A 
BRANCH  28  29
ATOM     29  O   UNL     1      45.618  46.798  17.556  1.00  0.00    -0.406 OA
BRANCH  29  30
ATOM     30  C   UNL     1      45.113  47.489  18.686  1.00  0.00    +0.573 C 
ATOM     31  F   UNL     1      44.873  46.641  19.708  1.00  0.00    -0.132 F 
ATOM     32  F   UNL     1      43.984  48.163  18.381  1.00  0.00    -0.132 F 
ATOM     33  F   UNL     1      46.040  48.385  19.094  1.00  0.00    -0.132 F 
ENDBRANCH  29  30
ENDBRANCH  28  29
ENDBRANCH  22  23
ENDBRANCH   1  22
TORSDOF 8
ENDMDL
MODEL 5
REMARK VINA RESULT:    -9.184      2.567      9.215
REMARK INTER + INTRA:         -13.844
REMARK INTER:                 -12.865
REMARK INTRA:                  -0.979
REMARK UNBOUND:                -0.364
REMARK SMILES O=C(COc1ccc(OC(F)(F)F)cc1)NNC(=S)Nc1cccc(C(F)(F)F)c1
REMARK SMILES IDX 3 1 2 2 16 3 1 4 17 6 20 7 18 8 19 9 21 12 23 13 24 14 22 15
REMARK SMILES IDX 25 16 30 17 26 18 27 19 28 20 29 21 4 22 5 23 6 24 15 25
REMARK SMILES IDX 7 26 14 27 8 28 9 29 10 30 11 31 12 32 13 33
REMARK H PARENT 16 5 20 10 17 11
ROOT
ATOM      1  C   UNL     1      52.935  52.668  19.141  1.00  0.00    +0.331 C 
ENDROOT
BRANCH   1   2
ATOM      2  C   UNL     1      52.379  51.400  18.505  1.00  0.00    +0.276 C 
ATOM      3  N   UNL     1      51.435  50.744  19.275  1.00  0.00    -0.265 N 
ATOM      4  O   UNL     1      52.770  50.964  17.422  1.00  0.00    -0.269 OA
ATOM      5  H   UNL     1      50.937  51.285  19.986  1.00  0.00    +0.191 HD
BRANCH   3   6
ATOM      6  N   UNL     1      50.712  49.700  18.659  1.00  0.00    -0.274 N 
ATOM      7  N   UNL     1      49.110  48.830  17.296  1.00  0.00    -0.331 N 
ATOM      8  C   UNL     1      49.548  49.984  17.936  1.00  0.00    +0.189 C 
ATOM      9  S   UNL     1      48.806  51.486  17.975  1.00  0.00    -0.039 S 
ATOM     10  H   UNL     1      49.439  47.982  17.743  1.00  0.00    +0.169 HD
ATOM     11  H   UNL     1      51.315  48.954  18.312  1.00  0.00    +0.190 HD
BRANCH   7  12
ATOM     12  C   UNL     1      48.134  48.626  16.296  1.00  0.00    +0.041 A 
ATOM     13  C   UNL     1      47.533  48.939  13.959  1.00  0.00    +0.003 A 
ATOM     14  C   UNL     1      46.294  48.347  14.189  1.00  0.00    +0.013 A 
ATOM     15  C   UNL     1      48.441  49.085  15.009  1.00  0.00    +0.026 A 
ATOM     16  C   UNL     1      45.947  47.916  15.475  1.00  0.00    +0.058 A 
ATOM     17  C   UNL     1      46.878  48.062  16.523  1.00  0.00    +0.039 A 
BRANCH  16  18
ATOM     18  C   UNL     1      44.606  47.276  15.736  1.00  0.00    +0.416 C 
ATOM     19  F   UNL     1      43.687  47.540  14.765  1.00  0.00    -0.166 F 
ATOM     20  F   UNL     1      44.672  45.916  15.819  1.00  0.00    -0.166 F 
ATOM     21  F   UNL     1      44.049  47.692  16.905  1.00  0.00    -0.166 F 
ENDBRANCH  16  18
ENDBRANCH   7  12
ENDBRANCH   3   6
ENDBRANCH   1   2
BRANCH   1  22
ATOM     22  O   UNL     1      52.097  53.080  20.219  1.00  0.00    -0.484 OA
BRANCH  22  23
ATOM     23  C   UNL     1      51.373  54.224  20.041  1.00  0.00    +0.120 A 
ATOM     24  C   UNL     1      49.994  54.071  20.190  1.00  0.00    +0.050 A 
ATOM     25  C   UNL     1      51.886  55.484  19.743  1.00  0.00    +0.050 A 
ATOM     26  C   UNL     1      49.127  55.160  20.040  1.00  0.00    +0.050 A 
ATOM     27  C   UNL     1      51.020  56.573  19.596  1.00  0.00    +0.050 A 
ATOM     28  C   UNL     1      49.638  56.422  19.743  1.00  0.00    +0.129 A 
BRANCH  28  29
ATOM     29  O   UNL     1      48.921  57.570  19.574  1.00  0.00    -0.406 OA
BRANCH  29  30
ATOM     30  C   UNL     1      48.053  57.968  20.621  1.00  0.00    +0.573 C 
ATOM     31  F   UNL     1      48.668  57.890  21.820  1.00  0.00    -0.132 F 
ATOM     32  F   UNL     1      46.932  57.215  20.637  1.00  0.00    -0.132 F 
ATOM     33  F   UNL     1      47.692  59.255  20.419  1.00  0.00    -0.132 F 
ENDBRANCH  29  30
ENDBRANCH  28  29
ENDBRANCH  22  23
ENDBRANCH   1  22
TORSDOF 8
ENDMDL
