MODEL 1
REMARK VINA RESULT:    -8.289      0.000      0.000
REMARK INTER + INTRA:         -14.016
REMARK INTER:                 -12.650
REMARK INTRA:                  -1.366
REMARK UNBOUND:                -1.366
REMARK SMILES C=CCN(CC=C)S(=O)(=O)c1ccc(C(=O)Nc2sc3c(c2C(N)=O)CC[NH+](C)C3)cc1
REMARK SMILES IDX 14 1 13 2 12 3 11 4 32 5 31 6 15 7 17 8 16 9 18 11 28 12
REMARK SMILES IDX 27 13 30 14 26 15 20 16 21 17 19 18 22 19 29 20 23 22 25 23
REMARK SMILES IDX 24 24 8 27 9 28 10 29 4 30 3 31 2 32 1 33 5 34 6 35 7 36
REMARK H PARENT 17 10 28 21 24 25 24 26
ROOT
ATOM      1  C   UNL     1      46.903  59.447  18.179  1.00  0.00    +0.040 A 
ATOM      2  C   UNL     1      46.031  59.700  17.110  1.00  0.00    +0.015 A 
ATOM      3  C   UNL     1      45.238  60.852  17.109  1.00  0.00    +0.022 A 
ATOM      4  C   UNL     1      45.323  61.756  18.174  1.00  0.00    +0.082 A 
ATOM      5  C   UNL     1      46.170  61.498  19.256  1.00  0.00    +0.022 A 
ATOM      6  C   UNL     1      46.960  60.346  19.254  1.00  0.00    +0.015 A 
ENDROOT
BRANCH   1   7
ATOM      7  C   UNL     1      47.734  58.208  18.248  1.00  0.00    +0.256 C 
ATOM      8  N   UNL     1      47.852  57.652  19.509  1.00  0.00    -0.313 N 
ATOM      9  O   UNL     1      48.202  57.768  17.205  1.00  0.00    -0.269 OA
ATOM     10  H   UNL     1      47.270  58.025  20.257  1.00  0.00    +0.171 HD
BRANCH   8  11
ATOM     11  C   UNL     1      48.644  56.571  19.870  1.00  0.00    +0.109 A 
ATOM     12  N   UNL     1      51.759  52.926  20.196  1.00  0.00    -0.333 N 
ATOM     13  C   UNL     1      51.779  53.360  21.651  1.00  0.00    +0.267 C 
ATOM     14  C   UNL     1      50.370  53.084  19.597  1.00  0.00    +0.310 C 
ATOM     15  C   UNL     1      51.447  54.862  21.788  1.00  0.00    +0.099 C 
ATOM     16  C   UNL     1      49.835  54.437  19.915  1.00  0.00    +0.065 A 
ATOM     17  C   UNL     1      50.289  55.278  20.919  1.00  0.00    -0.008 A 
ATOM     18  S   UNL     1      48.572  55.108  19.017  1.00  0.00    -0.116 S 
ATOM     19  C   UNL     1      49.587  56.549  20.896  1.00  0.00    +0.078 A 
ATOM     20  C   UNL     1      52.295  51.542  19.993  1.00  0.00    +0.333 C 
ATOM     21  H   UNL     1      52.365  53.569  19.671  1.00  0.00    +0.348 HD
BRANCH  19  22
ATOM     22  C   UNL     1      49.797  57.729  21.738  1.00  0.00    +0.252 C 
ATOM     23  O   UNL     1      48.872  58.414  22.163  1.00  0.00    -0.269 OA
ATOM     24  N   UNL     1      51.083  58.004  22.097  1.00  0.00    -0.365 N 
ATOM     25  H   UNL     1      51.158  58.731  22.802  1.00  0.00    +0.159 HD
ATOM     26  H   UNL     1      51.729  57.237  22.213  1.00  0.00    +0.159 HD
ENDBRANCH  19  22
ENDBRANCH   8  11
ENDBRANCH   1   7
BRANCH   4  27
ATOM     27  S   UNL     1      44.241  63.179  18.218  1.00  0.00    +0.243 S 
ATOM     28  O   UNL     1      44.522  63.889  19.447  1.00  0.00    -0.207 OA
ATOM     29  O   UNL     1      42.907  62.702  17.921  1.00  0.00    -0.207 OA
BRANCH  27  30
ATOM     30  N   UNL     1      44.782  64.118  16.916  1.00  0.00    -0.190 NA
BRANCH  30  31
ATOM     31  C   UNL     1      43.964  64.079  15.688  1.00  0.00    +0.129 C 
BRANCH  31  32
ATOM     32  C   UNL     1      44.823  63.594  14.562  1.00  0.00    -0.018 C 
ATOM     33  C   UNL     1      45.432  64.381  13.666  1.00  0.00    +0.005 C 
ENDBRANCH  31  32
ENDBRANCH  30  31
BRANCH  30  34
ATOM     34  C   UNL     1      45.350  65.440  17.242  1.00  0.00    +0.129 C 
BRANCH  34  35
ATOM     35  C   UNL     1      46.827  65.390  17.005  1.00  0.00    -0.018 C 
ATOM     36  C   UNL     1      47.578  64.280  17.052  1.00  0.00    +0.005 C 
ENDBRANCH  34  35
ENDBRANCH  30  34
ENDBRANCH  27  30
ENDBRANCH   4  27
TORSDOF 9
ENDMDL
MODEL 2
REMARK VINA RESULT:    -8.083      1.746      2.332
REMARK INTER + INTRA:         -13.703
REMARK INTER:                 -11.942
REMARK INTRA:                  -1.760
REMARK UNBOUND:                -1.366
REMARK SMILES C=CCN(CC=C)S(=O)(=O)c1ccc(C(=O)Nc2sc3c(c2C(N)=O)CC[NH+](C)C3)cc1
REMARK SMILES IDX 14 1 13 2 12 3 11 4 32 5 31 6 15 7 17 8 16 9 18 11 28 12
REMARK SMILES IDX 27 13 30 14 26 15 20 16 21 17 19 18 22 19 29 20 23 22 25 23
REMARK SMILES IDX 24 24 8 27 9 28 10 29 4 30 3 31 2 32 1 33 5 34 6 35 7 36
REMARK H PARENT 17 10 28 21 24 25 24 26
ROOT
ATOM      1  C   UNL     1      47.066  59.511  18.980  1.00  0.00    +0.040 A 
ATOM      2  C   UNL     1      46.504  59.409  17.698  1.00  0.00    +0.015 A 
ATOM      3  C   UNL     1      46.063  60.557  17.032  1.00  0.00    +0.022 A 
ATOM      4  C   UNL     1      46.194  61.809  17.644  1.00  0.00    +0.082 A 
ATOM      5  C   UNL     1      46.728  61.917  18.931  1.00  0.00    +0.022 A 
ATOM      6  C   UNL     1      47.165  60.768  19.594  1.00  0.00    +0.015 A 
ENDROOT
BRANCH   1   7
ATOM      7  C   UNL     1      47.505  58.309  19.750  1.00  0.00    +0.256 C 
ATOM      8  N   UNL     1      48.717  57.772  19.356  1.00  0.00    -0.313 N 
ATOM      9  O   UNL     1      46.798  57.924  20.673  1.00  0.00    -0.269 OA
ATOM     10  H   UNL     1      49.281  58.294  18.687  1.00  0.00    +0.171 HD
BRANCH   8  11
ATOM     11  C   UNL     1      49.302  56.604  19.826  1.00  0.00    +0.109 A 
ATOM     12  N   UNL     1      51.814  52.577  20.579  1.00  0.00    -0.333 N 
ATOM     13  C   UNL     1      51.723  53.049  22.020  1.00  0.00    +0.267 C 
ATOM     14  C   UNL     1      50.542  52.906  19.814  1.00  0.00    +0.310 C 
ATOM     15  C   UNL     1      51.591  54.587  22.094  1.00  0.00    +0.099 C 
ATOM     16  C   UNL     1      50.169  54.330  20.046  1.00  0.00    +0.065 A 
ATOM     17  C   UNL     1      50.614  55.130  21.085  1.00  0.00    -0.008 A 
ATOM     18  S   UNL     1      49.127  55.139  18.991  1.00  0.00    -0.116 S 
ATOM     19  C   UNL     1      50.104  56.485  20.959  1.00  0.00    +0.078 A 
ATOM     20  C   UNL     1      52.172  51.128  20.463  1.00  0.00    +0.333 C 
ATOM     21  H   UNL     1      52.562  53.115  20.123  1.00  0.00    +0.348 HD
BRANCH  19  22
ATOM     22  C   UNL     1      50.377  57.650  21.803  1.00  0.00    +0.252 C 
ATOM     23  O   UNL     1      49.501  58.228  22.439  1.00  0.00    -0.269 OA
ATOM     24  N   UNL     1      51.680  58.036  21.913  1.00  0.00    -0.365 N 
ATOM     25  H   UNL     1      51.832  58.742  22.626  1.00  0.00    +0.159 HD
ATOM     26  H   UNL     1      52.401  57.332  21.857  1.00  0.00    +0.159 HD
ENDBRANCH  19  22
ENDBRANCH   8  11
ENDBRANCH   1   7
BRANCH   4  27
ATOM     27  S   UNL     1      45.545  63.264  16.832  1.00  0.00    +0.243 S 
ATOM     28  O   UNL     1      45.031  62.841  15.548  1.00  0.00    -0.207 OA
ATOM     29  O   UNL     1      46.566  64.288  16.925  1.00  0.00    -0.207 OA
BRANCH  27  30
ATOM     30  N   UNL     1      44.242  63.710  17.817  1.00  0.00    -0.190 NA
BRANCH  30  31
ATOM     31  C   UNL     1      43.970  65.155  17.941  1.00  0.00    +0.129 C 
BRANCH  31  32
ATOM     32  C   UNL     1      42.965  65.540  16.901  1.00  0.00    -0.018 C 
ATOM     33  C   UNL     1      43.253  66.145  15.741  1.00  0.00    +0.005 C 
ENDBRANCH  31  32
ENDBRANCH  30  31
BRANCH  30  34
ATOM     34  C   UNL     1      43.040  62.856  17.754  1.00  0.00    +0.129 C 
BRANCH  34  35
ATOM     35  C   UNL     1      42.810  62.265  19.109  1.00  0.00    -0.018 C 
ATOM     36  C   UNL     1      43.057  60.991  19.446  1.00  0.00    +0.005 C 
ENDBRANCH  34  35
ENDBRANCH  30  34
ENDBRANCH  27  30
ENDBRANCH   4  27
TORSDOF 9
ENDMDL
MODEL 3
REMARK VINA RESULT:    -7.953      0.715      1.560
REMARK INTER + INTRA:         -13.503
REMARK INTER:                 -12.709
REMARK INTRA:                  -0.794
REMARK UNBOUND:                -1.366
REMARK SMILES C=CCN(CC=C)S(=O)(=O)c1ccc(C(=O)Nc2sc3c(c2C(N)=O)CC[NH+](C)C3)cc1
REMARK SMILES IDX 14 1 13 2 12 3 11 4 32 5 31 6 15 7 17 8 16 9 18 11 28 12
REMARK SMILES IDX 27 13 30 14 26 15 20 16 21 17 19 18 22 19 29 20 23 22 25 23
REMARK SMILES IDX 24 24 8 27 9 28 10 29 4 30 3 31 2 32 1 33 5 34 6 35 7 36
REMARK H PARENT 17 10 28 21 24 25 24 26
ROOT
ATOM      1  C   UNL     1      47.000  59.133  18.230  1.00  0.00    +0.040 A 
ATOM      2  C   UNL     1      46.282  59.490  17.079  1.00  0.00    +0.015 A 
ATOM      3  C   UNL     1      45.521  60.664  17.063  1.00  0.00    +0.022 A 
ATOM      4  C   UNL     1      45.488  61.487  18.194  1.00  0.00    +0.082 A 
ATOM      5  C   UNL     1      46.179  61.125  19.354  1.00  0.00    +0.022 A 
ATOM      6  C   UNL     1      46.936  59.951  19.368  1.00  0.00    +0.015 A 
ENDROOT
BRANCH   1   7
ATOM      7  C   UNL     1      47.785  57.866  18.313  1.00  0.00    +0.256 C 
ATOM      8  N   UNL     1      47.983  57.382  19.594  1.00  0.00    -0.313 N 
ATOM      9  O   UNL     1      48.152  57.344  17.267  1.00  0.00    -0.269 OA
ATOM     10  H   UNL     1      47.477  57.825  20.360  1.00  0.00    +0.171 HD
BRANCH   8  11
ATOM     11  C   UNL     1      48.760  56.292  19.961  1.00  0.00    +0.109 A 
ATOM     12  N   UNL     1      51.791  52.577  20.290  1.00  0.00    -0.333 N 
ATOM     13  C   UNL     1      51.873  53.053  21.729  1.00  0.00    +0.267 C 
ATOM     14  C   UNL     1      50.385  52.753  19.735  1.00  0.00    +0.310 C 
ATOM     15  C   UNL     1      51.585  54.567  21.832  1.00  0.00    +0.099 C 
ATOM     16  C   UNL     1      49.897  54.130  20.029  1.00  0.00    +0.065 A 
ATOM     17  C   UNL     1      50.408  54.987  20.991  1.00  0.00    -0.008 A 
ATOM     18  S   UNL     1      48.620  54.806  19.156  1.00  0.00    -0.116 S 
ATOM     19  C   UNL     1      49.737  56.276  20.953  1.00  0.00    +0.078 A 
ATOM     20  C   UNL     1      52.284  51.174  20.111  1.00  0.00    +0.333 C 
ATOM     21  H   UNL     1      52.394  53.188  19.724  1.00  0.00    +0.348 HD
BRANCH  19  22
ATOM     22  C   UNL     1      50.007  57.474  21.750  1.00  0.00    +0.252 C 
ATOM     23  O   UNL     1      49.116  58.198  22.183  1.00  0.00    -0.269 OA
ATOM     24  N   UNL     1      51.312  57.723  22.060  1.00  0.00    -0.365 N 
ATOM     25  H   UNL     1      51.429  58.469  22.739  1.00  0.00    +0.159 HD
ATOM     26  H   UNL     1      51.940  56.942  22.179  1.00  0.00    +0.159 HD
ENDBRANCH  19  22
ENDBRANCH   8  11
ENDBRANCH   1   7
BRANCH   4  27
ATOM     27  S   UNL     1      44.443  62.937  18.204  1.00  0.00    +0.243 S 
ATOM     28  O   UNL     1      44.709  63.645  19.438  1.00  0.00    -0.207 OA
ATOM     29  O   UNL     1      43.104  62.494  17.874  1.00  0.00    -0.207 OA
BRANCH  27  30
ATOM     30  N   UNL     1      45.041  63.856  16.914  1.00  0.00    -0.190 NA
BRANCH  30  31
ATOM     31  C   UNL     1      46.502  63.832  16.706  1.00  0.00    +0.129 C 
BRANCH  31  32
ATOM     32  C   UNL     1      46.929  65.170  16.188  1.00  0.00    -0.018 C 
ATOM     33  C   UNL     1      47.004  66.290  16.920  1.00  0.00    +0.005 C 
ENDBRANCH  31  32
ENDBRANCH  30  31
BRANCH  30  34
ATOM     34  C   UNL     1      44.239  63.864  15.676  1.00  0.00    +0.129 C 
BRANCH  34  35
ATOM     35  C   UNL     1      43.343  65.064  15.702  1.00  0.00    -0.018 C 
ATOM     36  C   UNL     1      43.378  66.031  16.629  1.00  0.00    +0.005 C 
ENDBRANCH  34  35
ENDBRANCH  30  34
ENDBRANCH  27  30
ENDBRANCH   4  27
TORSDOF 9
ENDMDL
MODEL 4
REMARK VINA RESULT:    -7.796      1.665      2.810
REMARK INTER + INTRA:         -13.264
REMARK INTER:                 -11.873
REMARK INTRA:                  -1.391
REMARK UNBOUND:                -1.366
REMARK SMILES C=CCN(CC=C)S(=O)(=O)c1ccc(C(=O)Nc2sc3c(c2C(N)=O)CC[NH+](C)C3)cc1
REMARK SMILES IDX 14 1 13 2 12 3 11 4 32 5 31 6 15 7 17 8 16 9 18 11 28 12
REMARK SMILES IDX 27 13 30 14 26 15 20 16 21 17 19 18 22 19 29 20 23 22 25 23
REMARK SMILES IDX 24 24 8 27 9 28 10 29 4 30 3 31 2 32 1 33 5 34 6 35 7 36
REMARK H PARENT 17 10 28 21 24 25 24 26
ROOT
ATOM      1  C   UNL     1      47.162  59.168  17.881  1.00  0.00    +0.040 A 
ATOM      2  C   UNL     1      47.476  60.309  18.634  1.00  0.00    +0.015 A 
ATOM      3  C   UNL     1      46.828  61.521  18.374  1.00  0.00    +0.022 A 
ATOM      4  C   UNL     1      45.858  61.589  17.367  1.00  0.00    +0.082 A 
ATOM      5  C   UNL     1      45.558  60.463  16.595  1.00  0.00    +0.022 A 
ATOM      6  C   UNL     1      46.209  59.255  16.856  1.00  0.00    +0.015 A 
ENDROOT
BRANCH   1   7
ATOM      7  C   UNL     1      47.862  57.865  18.088  1.00  0.00    +0.256 C 
ATOM      8  N   UNL     1      48.112  57.538  19.409  1.00  0.00    -0.313 N 
ATOM      9  O   UNL     1      48.119  57.184  17.103  1.00  0.00    -0.269 OA
ATOM     10  H   UNL     1      47.692  58.115  20.136  1.00  0.00    +0.171 HD
BRANCH   8  11
ATOM     11  C   UNL     1      48.835  56.448  19.873  1.00  0.00    +0.109 A 
ATOM     12  N   UNL     1      51.750  52.691  20.569  1.00  0.00    -0.333 N 
ATOM     13  C   UNL     1      51.732  53.219  21.993  1.00  0.00    +0.267 C 
ATOM     14  C   UNL     1      50.396  52.874  19.901  1.00  0.00    +0.310 C 
ATOM     15  C   UNL     1      51.470  54.741  22.019  1.00  0.00    +0.099 C 
ATOM     16  C   UNL     1      49.917  54.269  20.107  1.00  0.00    +0.065 A 
ATOM     17  C   UNL     1      50.370  55.152  21.074  1.00  0.00    -0.008 A 
ATOM     18  S   UNL     1      48.725  54.936  19.114  1.00  0.00    -0.116 S 
ATOM     19  C   UNL     1      49.732  56.450  20.939  1.00  0.00    +0.078 A 
ATOM     20  C   UNL     1      52.226  51.274  20.479  1.00  0.00    +0.333 C 
ATOM     21  H   UNL     1      52.408  53.270  20.031  1.00  0.00    +0.348 HD
BRANCH  19  22
ATOM     22  C   UNL     1      49.966  57.672  21.711  1.00  0.00    +0.252 C 
ATOM     23  O   UNL     1      49.055  58.328  22.207  1.00  0.00    -0.269 OA
ATOM     24  N   UNL     1      51.266  58.024  21.924  1.00  0.00    -0.365 N 
ATOM     25  H   UNL     1      51.374  58.781  22.591  1.00  0.00    +0.159 HD
ATOM     26  H   UNL     1      51.960  57.294  21.999  1.00  0.00    +0.159 HD
ENDBRANCH  19  22
ENDBRANCH   8  11
ENDBRANCH   1   7
BRANCH   4  27
ATOM     27  S   UNL     1      45.098  63.159  16.974  1.00  0.00    +0.243 S 
ATOM     28  O   UNL     1      45.292  63.382  15.558  1.00  0.00    -0.207 OA
ATOM     29  O   UNL     1      45.576  64.114  17.951  1.00  0.00    -0.207 OA
BRANCH  27  30
ATOM     30  N   UNL     1      43.452  62.875  17.256  1.00  0.00    -0.190 NA
BRANCH  30  31
ATOM     31  C   UNL     1      42.909  63.354  18.541  1.00  0.00    +0.129 C 
BRANCH  31  32
ATOM     32  C   UNL     1      43.145  62.301  19.578  1.00  0.00    -0.018 C 
ATOM     33  C   UNL     1      42.872  60.998  19.427  1.00  0.00    +0.005 C 
ENDBRANCH  31  32
ENDBRANCH  30  31
BRANCH  30  34
ATOM     34  C   UNL     1      42.545  63.028  16.103  1.00  0.00    +0.129 C 
BRANCH  34  35
ATOM     35  C   UNL     1      42.251  61.669  15.549  1.00  0.00    -0.018 C 
ATOM     36  C   UNL     1      41.441  60.764  16.117  1.00  0.00    +0.005 C 
ENDBRANCH  34  35
ENDBRANCH  30  34
ENDBRANCH  27  30
ENDBRANCH   4  27
TORSDOF 9
ENDMDL
MODEL 5
REMARK VINA RESULT:    -7.185      2.523     10.639
REMARK INTER + INTRA:         -12.331
REMARK INTER:                 -11.462
REMARK INTRA:                  -0.869
REMARK UNBOUND:                -1.366
REMARK SMILES C=CCN(CC=C)S(=O)(=O)c1ccc(C(=O)Nc2sc3c(c2C(N)=O)CC[NH+](C)C3)cc1
REMARK SMILES IDX 14 1 13 2 12 3 11 4 32 5 31 6 15 7 17 8 16 9 18 11 28 12
REMARK SMILES IDX 27 13 30 14 26 15 20 16 21 17 19 18 22 19 29 20 23 22 25 23
REMARK SMILES IDX 24 24 8 27 9 28 10 29 4 30 3 31 2 32 1 33 5 34 6 35 7 36
REMARK H PARENT 17 10 28 21 24 25 24 26
ROOT
ATOM      1  C   UNL     1      48.503  56.960  19.465  1.00  0.00    +0.040 A 
ATOM      2  C   UNL     1      48.741  56.135  18.355  1.00  0.00    +0.015 A 
ATOM      3  C   UNL     1      49.672  55.095  18.441  1.00  0.00    +0.022 A 
ATOM      4  C   UNL     1      50.359  54.873  19.640  1.00  0.00    +0.082 A 
ATOM      5  C   UNL     1      50.147  55.707  20.742  1.00  0.00    +0.022 A 
ATOM      6  C   UNL     1      49.218  56.746  20.653  1.00  0.00    +0.015 A 
ENDROOT
BRANCH   1   7
ATOM      7  C   UNL     1      47.556  58.112  19.407  1.00  0.00    +0.256 C 
ATOM      8  N   UNL     1      47.512  58.774  18.193  1.00  0.00    -0.313 N 
ATOM      9  O   UNL     1      46.878  58.354  20.398  1.00  0.00    -0.269 OA
ATOM     10  H   UNL     1      48.004  58.362  17.401  1.00  0.00    +0.171 HD
BRANCH   8  11
ATOM     11  C   UNL     1      46.805  59.933  17.902  1.00  0.00    +0.109 A 
ATOM     12  N   UNL     1      45.265  64.367  16.871  1.00  0.00    -0.333 N 
ATOM     13  C   UNL     1      44.181  63.587  16.149  1.00  0.00    +0.267 C 
ATOM     14  C   UNL     1      45.687  63.661  18.150  1.00  0.00    +0.310 C 
ATOM     15  C   UNL     1      44.698  62.203  15.697  1.00  0.00    +0.099 C 
ATOM     16  C   UNL     1      45.952  62.223  17.868  1.00  0.00    +0.065 A 
ATOM     17  C   UNL     1      45.505  61.513  16.765  1.00  0.00    -0.008 A 
ATOM     18  S   UNL     1      46.885  61.287  18.919  1.00  0.00    -0.116 S 
ATOM     19  C   UNL     1      46.011  60.151  16.778  1.00  0.00    +0.078 A 
ATOM     20  C   UNL     1      44.886  65.793  17.124  1.00  0.00    +0.333 C 
ATOM     21  H   UNL     1      46.098  64.374  16.267  1.00  0.00    +0.348 HD
BRANCH  19  22
ATOM     22  C   UNL     1      45.830  59.096  15.780  1.00  0.00    +0.252 C 
ATOM     23  O   UNL     1      45.724  57.910  16.079  1.00  0.00    -0.269 OA
ATOM     24  N   UNL     1      45.712  59.494  14.480  1.00  0.00    -0.365 N 
ATOM     25  H   UNL     1      45.433  58.746  13.854  1.00  0.00    +0.159 HD
ATOM     26  H   UNL     1      45.287  60.389  14.285  1.00  0.00    +0.159 HD
ENDBRANCH  19  22
ENDBRANCH   8  11
ENDBRANCH   1   7
BRANCH   4  27
ATOM     27  S   UNL     1      51.615  53.604  19.721  1.00  0.00    +0.243 S 
ATOM     28  O   UNL     1      52.224  53.690  21.030  1.00  0.00    -0.207 OA
ATOM     29  O   UNL     1      52.413  53.726  18.518  1.00  0.00    -0.207 OA
BRANCH  27  30
ATOM     30  N   UNL     1      50.722  52.168  19.633  1.00  0.00    -0.190 NA
BRANCH  30  31
ATOM     31  C   UNL     1      50.624  51.529  18.306  1.00  0.00    +0.129 C 
BRANCH  31  32
ATOM     32  C   UNL     1      49.192  51.558  17.872  1.00  0.00    -0.018 C 
ATOM     33  C   UNL     1      48.759  51.989  16.679  1.00  0.00    +0.005 C 
ENDBRANCH  31  32
ENDBRANCH  30  31
BRANCH  30  34
ATOM     34  C   UNL     1      50.860  51.230  20.764  1.00  0.00    +0.129 C 
BRANCH  34  35
ATOM     35  C   UNL     1      51.020  49.847  20.213  1.00  0.00    -0.018 C 
ATOM     36  C   UNL     1      50.503  48.737  20.758  1.00  0.00    +0.005 C 
ENDBRANCH  34  35
ENDBRANCH  30  34
ENDBRANCH  27  30
ENDBRANCH   4  27
TORSDOF 9
ENDMDL
