MODEL 1
REMARK VINA RESULT:    -8.217      0.000      0.000
REMARK INTER + INTRA:         -12.263
REMARK INTER:                 -11.580
REMARK INTRA:                  -0.683
REMARK UNBOUND:                -0.683
REMARK SMILES COC(=O)c1ccc(NC(=S)N[C@H](NC(=O)c2ccccc2)C(Cl)(Cl)Cl)cc1
REMARK SMILES IDX 5 1 6 2 7 3 8 4 27 5 28 6 3 7 4 8 2 9 1 10 9 11 10 12 11 13
REMARK SMILES IDX 12 14 13 17 23 18 24 19 25 20 26 21 14 22 15 23 16 24 17 26
REMARK SMILES IDX 18 27 22 28 19 29 21 30 20 31
REMARK H PARENT 9 15 12 16 14 25
ROOT
ATOM      1  C   UNL     1      47.540  58.425  18.759  1.00  0.00    +0.060 A 
ATOM      2  C   UNL     1      48.015  57.672  17.680  1.00  0.00    +0.018 A 
ATOM      3  C   UNL     1      48.584  56.408  17.888  1.00  0.00    +0.027 A 
ATOM      4  C   UNL     1      48.701  55.888  19.178  1.00  0.00    +0.040 A 
ATOM      5  C   UNL     1      48.199  56.631  20.254  1.00  0.00    +0.027 A 
ATOM      6  C   UNL     1      47.630  57.894  20.050  1.00  0.00    +0.018 A 
ENDROOT
BRANCH   1   7
ATOM      7  C   UNL     1      46.945  59.761  18.481  1.00  0.00    +0.337 C 
ATOM      8  O   UNL     1      46.401  60.051  17.426  1.00  0.00    -0.246 OA
BRANCH   7   9
ATOM      9  O   UNL     1      47.095  60.584  19.548  1.00  0.00    -0.465 OA
ATOM     10  C   UNL     1      46.744  61.943  19.285  1.00  0.00    +0.282 C 
ENDBRANCH   7   9
ENDBRANCH   1   7
BRANCH   4  11
ATOM     11  N   UNL     1      49.230  54.612  19.467  1.00  0.00    -0.333 N 
ATOM     12  C   UNL     1      50.247  54.240  20.309  1.00  0.00    +0.172 C 
ATOM     13  S   UNL     1      50.870  55.063  21.620  1.00  0.00    -0.041 S 
ATOM     14  N   UNL     1      50.778  53.002  20.062  1.00  0.00    -0.339 N 
ATOM     15  H   UNL     1      48.638  53.838  19.183  1.00  0.00    +0.169 HD
ATOM     16  H   UNL     1      51.535  52.781  20.701  1.00  0.00    +0.165 HD
BRANCH  14  17
ATOM     17  C   UNL     1      50.821  52.316  18.766  1.00  0.00    +0.231 C 
BRANCH  17  18
ATOM     18  C   UNL     1      52.230  51.668  18.433  1.00  0.00    +0.228 C 
ATOM     19 Cl   UNL     1      52.750  50.498  19.691  1.00  0.00    -0.079 Cl
ATOM     20 Cl   UNL     1      52.203  50.813  16.854  1.00  0.00    -0.079 Cl
ATOM     21 Cl   UNL     1      53.485  52.967  18.342  1.00  0.00    -0.079 Cl
ENDBRANCH  17  18
BRANCH  17  22
ATOM     22  N   UNL     1      49.722  51.364  18.794  1.00  0.00    -0.328 N 
ATOM     23  C   UNL     1      48.857  51.239  17.732  1.00  0.00    +0.252 C 
ATOM     24  O   UNL     1      48.922  51.956  16.740  1.00  0.00    -0.269 OA
ATOM     25  H   UNL     1      49.559  50.852  19.649  1.00  0.00    +0.166 HD
BRANCH  23  26
ATOM     26  C   UNL     1      47.792  50.206  17.856  1.00  0.00    +0.039 A 
ATOM     27  C   UNL     1      46.627  50.362  17.094  1.00  0.00    +0.014 A 
ATOM     28  C   UNL     1      47.937  49.084  18.681  1.00  0.00    +0.014 A 
ATOM     29  C   UNL     1      45.602  49.418  17.180  1.00  0.00    +0.001 A 
ATOM     30  C   UNL     1      46.909  48.141  18.762  1.00  0.00    +0.001 A 
ATOM     31  C   UNL     1      45.743  48.311  18.015  1.00  0.00    +0.000 A 
ENDBRANCH  23  26
ENDBRANCH  17  22
ENDBRANCH  14  17
ENDBRANCH   4  11
TORSDOF 7
ENDMDL
MODEL 2
REMARK VINA RESULT:    -8.131      2.673      3.704
REMARK INTER + INTRA:         -12.140
REMARK INTER:                 -11.363
REMARK INTRA:                  -0.778
REMARK UNBOUND:                -0.683
REMARK SMILES COC(=O)c1ccc(NC(=S)N[C@H](NC(=O)c2ccccc2)C(Cl)(Cl)Cl)cc1
REMARK SMILES IDX 5 1 6 2 7 3 8 4 27 5 28 6 3 7 4 8 2 9 1 10 9 11 10 12 11 13
REMARK SMILES IDX 12 14 13 17 23 18 24 19 25 20 26 21 14 22 15 23 16 24 17 26
REMARK SMILES IDX 18 27 22 28 19 29 21 30 20 31
REMARK H PARENT 9 15 12 16 14 25
ROOT
ATOM      1  C   UNL     1      49.260  55.923  20.116  1.00  0.00    +0.060 A 
ATOM      2  C   UNL     1      48.756  55.665  18.837  1.00  0.00    +0.018 A 
ATOM      3  C   UNL     1      48.918  54.403  18.248  1.00  0.00    +0.027 A 
ATOM      4  C   UNL     1      49.599  53.389  18.922  1.00  0.00    +0.040 A 
ATOM      5  C   UNL     1      50.078  53.641  20.215  1.00  0.00    +0.027 A 
ATOM      6  C   UNL     1      49.919  54.899  20.806  1.00  0.00    +0.018 A 
ENDROOT
BRANCH   1   7
ATOM      7  C   UNL     1      49.060  57.280  20.694  1.00  0.00    +0.337 C 
ATOM      8  O   UNL     1      48.104  57.993  20.428  1.00  0.00    -0.246 OA
BRANCH   7   9
ATOM      9  O   UNL     1      50.074  57.596  21.537  1.00  0.00    -0.465 OA
ATOM     10  C   UNL     1      51.303  57.900  20.876  1.00  0.00    +0.282 C 
ENDBRANCH   7   9
ENDBRANCH   1   7
BRANCH   4  11
ATOM     11  N   UNL     1      49.774  52.084  18.413  1.00  0.00    -0.333 N 
ATOM     12  C   UNL     1      50.920  51.397  18.102  1.00  0.00    +0.172 C 
ATOM     13  S   UNL     1      52.471  51.650  18.658  1.00  0.00    -0.041 S 
ATOM     14  N   UNL     1      50.742  50.330  17.262  1.00  0.00    -0.339 N 
ATOM     15  H   UNL     1      48.955  51.490  18.491  1.00  0.00    +0.169 HD
ATOM     16  H   UNL     1      51.620  49.865  17.052  1.00  0.00    +0.165 HD
BRANCH  14  17
ATOM     17  C   UNL     1      49.687  50.180  16.254  1.00  0.00    +0.231 C 
BRANCH  17  18
ATOM     18  C   UNL     1      50.200  49.588  14.875  1.00  0.00    +0.228 C 
ATOM     19 Cl   UNL     1      49.162  50.086  13.498  1.00  0.00    -0.079 Cl
ATOM     20 Cl   UNL     1      51.882  50.110  14.521  1.00  0.00    -0.079 Cl
ATOM     21 Cl   UNL     1      50.182  47.781  14.950  1.00  0.00    -0.079 Cl
ENDBRANCH  17  18
BRANCH  17  22
ATOM     22  N   UNL     1      48.650  49.385  16.892  1.00  0.00    -0.328 N 
ATOM     23  C   UNL     1      47.432  49.930  17.222  1.00  0.00    +0.252 C 
ATOM     24  O   UNL     1      47.174  51.117  17.058  1.00  0.00    -0.269 OA
ATOM     25  H   UNL     1      48.876  48.438  17.163  1.00  0.00    +0.166 HD
BRANCH  23  26
ATOM     26  C   UNL     1      46.434  49.013  17.836  1.00  0.00    +0.039 A 
ATOM     27  C   UNL     1      45.188  48.875  17.210  1.00  0.00    +0.014 A 
ATOM     28  C   UNL     1      46.715  48.272  18.991  1.00  0.00    +0.014 A 
ATOM     29  C   UNL     1      44.221  48.025  17.752  1.00  0.00    +0.001 A 
ATOM     30  C   UNL     1      45.745  47.423  19.529  1.00  0.00    +0.001 A 
ATOM     31  C   UNL     1      44.499  47.304  18.912  1.00  0.00    +0.000 A 
ENDBRANCH  23  26
ENDBRANCH  17  22
ENDBRANCH  14  17
ENDBRANCH   4  11
TORSDOF 7
ENDMDL
MODEL 3
REMARK VINA RESULT:    -7.958      2.129      2.869
REMARK INTER + INTRA:         -11.897
REMARK INTER:                 -11.187
REMARK INTRA:                  -0.709
REMARK UNBOUND:                -0.683
REMARK SMILES COC(=O)c1ccc(NC(=S)N[C@H](NC(=O)c2ccccc2)C(Cl)(Cl)Cl)cc1
REMARK SMILES IDX 5 1 6 2 7 3 8 4 27 5 28 6 3 7 4 8 2 9 1 10 9 11 10 12 11 13
REMARK SMILES IDX 12 14 13 17 23 18 24 19 25 20 26 21 14 22 15 23 16 24 17 26
REMARK SMILES IDX 18 27 22 28 19 29 21 30 20 31
REMARK H PARENT 9 15 12 16 14 25
ROOT
ATOM      1  C   UNL     1      46.899  57.230  15.273  1.00  0.00    +0.060 A 
ATOM      2  C   UNL     1      47.548  57.682  16.426  1.00  0.00    +0.018 A 
ATOM      3  C   UNL     1      48.159  56.775  17.302  1.00  0.00    +0.027 A 
ATOM      4  C   UNL     1      48.114  55.403  17.046  1.00  0.00    +0.040 A 
ATOM      5  C   UNL     1      47.487  54.955  15.876  1.00  0.00    +0.027 A 
ATOM      6  C   UNL     1      46.876  55.859  14.998  1.00  0.00    +0.018 A 
ENDROOT
BRANCH   1   7
ATOM      7  C   UNL     1      46.267  58.238  14.377  1.00  0.00    +0.337 C 
ATOM      8  O   UNL     1      45.586  59.168  14.781  1.00  0.00    -0.246 OA
BRANCH   7   9
ATOM      9  O   UNL     1      46.557  57.974  13.079  1.00  0.00    -0.465 OA
ATOM     10  C   UNL     1      45.481  58.242  12.179  1.00  0.00    +0.282 C 
ENDBRANCH   7   9
ENDBRANCH   1   7
BRANCH   4  11
ATOM     11  N   UNL     1      48.732  54.429  17.859  1.00  0.00    -0.333 N 
ATOM     12  C   UNL     1      49.653  54.565  18.866  1.00  0.00    +0.172 C 
ATOM     13  S   UNL     1      49.990  55.906  19.798  1.00  0.00    -0.041 S 
ATOM     14  N   UNL     1      50.345  53.424  19.173  1.00  0.00    -0.339 N 
ATOM     15  H   UNL     1      48.274  53.524  17.850  1.00  0.00    +0.169 HD
ATOM     16  H   UNL     1      51.023  53.580  19.912  1.00  0.00    +0.165 HD
BRANCH  14  17
ATOM     17  C   UNL     1      50.647  52.315  18.260  1.00  0.00    +0.231 C 
BRANCH  17  18
ATOM     18  C   UNL     1      52.101  51.710  18.448  1.00  0.00    +0.228 C 
ATOM     19 Cl   UNL     1      52.202  50.628  19.876  1.00  0.00    -0.079 Cl
ATOM     20 Cl   UNL     1      52.615  50.776  17.003  1.00  0.00    -0.079 Cl
ATOM     21 Cl   UNL     1      53.286  53.054  18.694  1.00  0.00    -0.079 Cl
ENDBRANCH  17  18
BRANCH  17  22
ATOM     22  N   UNL     1      49.573  51.352  18.451  1.00  0.00    -0.328 N 
ATOM     23  C   UNL     1      48.680  51.068  17.445  1.00  0.00    +0.252 C 
ATOM     24  O   UNL     1      48.696  51.648  16.365  1.00  0.00    -0.269 OA
ATOM     25  H   UNL     1      49.450  50.955  19.371  1.00  0.00    +0.166 HD
BRANCH  23  26
ATOM     26  C   UNL     1      47.647  50.038  17.740  1.00  0.00    +0.039 A 
ATOM     27  C   UNL     1      46.434  50.099  17.042  1.00  0.00    +0.014 A 
ATOM     28  C   UNL     1      47.865  49.008  18.664  1.00  0.00    +0.014 A 
ATOM     29  C   UNL     1      45.436  49.154  17.288  1.00  0.00    +0.001 A 
ATOM     30  C   UNL     1      46.864  48.064  18.905  1.00  0.00    +0.001 A 
ATOM     31  C   UNL     1      45.651  48.141  18.221  1.00  0.00    +0.000 A 
ENDBRANCH  23  26
ENDBRANCH  17  22
ENDBRANCH  14  17
ENDBRANCH   4  11
TORSDOF 7
ENDMDL
MODEL 4
REMARK VINA RESULT:    -7.138      3.452      4.882
REMARK INTER + INTRA:         -10.742
REMARK INTER:                 -10.338
REMARK INTRA:                  -0.404
REMARK UNBOUND:                -0.683
REMARK SMILES COC(=O)c1ccc(NC(=S)N[C@H](NC(=O)c2ccccc2)C(Cl)(Cl)Cl)cc1
REMARK SMILES IDX 5 1 6 2 7 3 8 4 27 5 28 6 3 7 4 8 2 9 1 10 9 11 10 12 11 13
REMARK SMILES IDX 12 14 13 17 23 18 24 19 25 20 26 21 14 22 15 23 16 24 17 26
REMARK SMILES IDX 18 27 22 28 19 29 21 30 20 31
REMARK H PARENT 9 15 12 16 14 25
ROOT
ATOM      1  C   UNL     1      46.649  57.680  14.885  1.00  0.00    +0.060 A 
ATOM      2  C   UNL     1      47.306  56.446  14.933  1.00  0.00    +0.018 A 
ATOM      3  C   UNL     1      47.902  56.002  16.121  1.00  0.00    +0.027 A 
ATOM      4  C   UNL     1      47.866  56.792  17.271  1.00  0.00    +0.040 A 
ATOM      5  C   UNL     1      47.183  58.015  17.228  1.00  0.00    +0.027 A 
ATOM      6  C   UNL     1      46.586  58.462  16.043  1.00  0.00    +0.018 A 
ENDROOT
BRANCH   1   7
ATOM      7  C   UNL     1      46.032  58.102  13.597  1.00  0.00    +0.337 C 
ATOM      8  O   UNL     1      45.367  59.118  13.468  1.00  0.00    -0.246 OA
BRANCH   7   9
ATOM      9  O   UNL     1      46.316  57.210  12.616  1.00  0.00    -0.465 OA
ATOM     10  C   UNL     1      45.795  57.572  11.336  1.00  0.00    +0.282 C 
ENDBRANCH   7   9
ENDBRANCH   1   7
BRANCH   4  11
ATOM     11  N   UNL     1      48.412  56.403  18.512  1.00  0.00    -0.333 N 
ATOM     12  C   UNL     1      48.411  57.044  19.725  1.00  0.00    +0.172 C 
ATOM     13  S   UNL     1      47.376  58.230  20.277  1.00  0.00    -0.041 S 
ATOM     14  N   UNL     1      49.359  56.605  20.611  1.00  0.00    -0.339 N 
ATOM     15  H   UNL     1      48.650  55.419  18.576  1.00  0.00    +0.169 HD
ATOM     16  H   UNL     1      49.326  57.119  21.486  1.00  0.00    +0.165 HD
BRANCH  14  17
ATOM     17  C   UNL     1      50.656  56.008  20.274  1.00  0.00    +0.231 C 
BRANCH  17  18
ATOM     18  C   UNL     1      51.861  56.565  21.143  1.00  0.00    +0.228 C 
ATOM     19 Cl   UNL     1      53.416  56.519  20.249  1.00  0.00    -0.079 Cl
ATOM     20 Cl   UNL     1      51.566  58.258  21.665  1.00  0.00    -0.079 Cl
ATOM     21 Cl   UNL     1      52.053  55.550  22.628  1.00  0.00    -0.079 Cl
ENDBRANCH  17  18
BRANCH  17  22
ATOM     22  N   UNL     1      50.461  54.570  20.381  1.00  0.00    -0.328 N 
ATOM     23  C   UNL     1      50.979  53.707  19.445  1.00  0.00    +0.252 C 
ATOM     24  O   UNL     1      51.572  54.096  18.445  1.00  0.00    -0.269 OA
ATOM     25  H   UNL     1      49.865  54.226  21.120  1.00  0.00    +0.166 HD
BRANCH  23  26
ATOM     26  C   UNL     1      50.750  52.255  19.676  1.00  0.00    +0.039 A 
ATOM     27  C   UNL     1      50.090  51.522  18.682  1.00  0.00    +0.014 A 
ATOM     28  C   UNL     1      51.198  51.606  20.834  1.00  0.00    +0.014 A 
ATOM     29  C   UNL     1      49.853  50.157  18.858  1.00  0.00    +0.001 A 
ATOM     30  C   UNL     1      50.960  50.240  21.005  1.00  0.00    +0.001 A 
ATOM     31  C   UNL     1      50.285  49.519  20.020  1.00  0.00    +0.000 A 
ENDBRANCH  23  26
ENDBRANCH  17  22
ENDBRANCH  14  17
ENDBRANCH   4  11
TORSDOF 7
ENDMDL
MODEL 5
REMARK VINA RESULT:    -6.760      6.748      9.174
REMARK INTER + INTRA:         -10.209
REMARK INTER:                  -9.144
REMARK INTRA:                  -1.064
REMARK UNBOUND:                -0.683
REMARK SMILES COC(=O)c1ccc(NC(=S)N[C@H](NC(=O)c2ccccc2)C(Cl)(Cl)Cl)cc1
REMARK SMILES IDX 5 1 6 2 7 3 8 4 27 5 28 6 3 7 4 8 2 9 1 10 9 11 10 12 11 13
REMARK SMILES IDX 12 14 13 17 23 18 24 19 25 20 26 21 14 22 15 23 16 24 17 26
REMARK SMILES IDX 18 27 22 28 19 29 21 30 20 31
REMARK H PARENT 9 15 12 16 14 25
ROOT
ATOM      1  C   UNL     1      49.127  56.669  20.056  1.00  0.00    +0.060 A 
ATOM      2  C   UNL     1      48.437  57.787  20.538  1.00  0.00    +0.018 A 
ATOM      3  C   UNL     1      47.685  58.589  19.669  1.00  0.00    +0.027 A 
ATOM      4  C   UNL     1      47.626  58.294  18.306  1.00  0.00    +0.040 A 
ATOM      5  C   UNL     1      48.294  57.158  17.831  1.00  0.00    +0.027 A 
ATOM      6  C   UNL     1      49.046  56.354  18.696  1.00  0.00    +0.018 A 
ENDROOT
BRANCH   1   7
ATOM      7  C   UNL     1      49.910  55.852  21.024  1.00  0.00    +0.337 C 
ATOM      8  O   UNL     1      50.009  54.636  20.956  1.00  0.00    -0.246 OA
BRANCH   7   9
ATOM      9  O   UNL     1      50.481  56.642  21.966  1.00  0.00    -0.465 OA
ATOM     10  C   UNL     1      51.595  56.041  22.628  1.00  0.00    +0.282 C 
ENDBRANCH   7   9
ENDBRANCH   1   7
BRANCH   4  11
ATOM     11  N   UNL     1      46.865  59.031  17.373  1.00  0.00    -0.333 N 
ATOM     12  C   UNL     1      46.431  60.332  17.408  1.00  0.00    +0.172 C 
ATOM     13  S   UNL     1      47.040  61.611  18.288  1.00  0.00    -0.041 S 
ATOM     14  N   UNL     1      45.392  60.617  16.563  1.00  0.00    -0.339 N 
ATOM     15  H   UNL     1      46.814  58.613  16.450  1.00  0.00    +0.169 HD
ATOM     16  H   UNL     1      45.099  61.586  16.637  1.00  0.00    +0.165 HD
BRANCH  14  17
ATOM     17  C   UNL     1      44.365  59.678  16.097  1.00  0.00    +0.231 C 
BRANCH  17  18
ATOM     18  C   UNL     1      42.882  60.140  16.421  1.00  0.00    +0.228 C 
ATOM     19 Cl   UNL     1      42.749  60.891  18.045  1.00  0.00    -0.079 Cl
ATOM     20 Cl   UNL     1      42.283  61.322  15.209  1.00  0.00    -0.079 Cl
ATOM     21 Cl   UNL     1      41.783  58.704  16.391  1.00  0.00    -0.079 Cl
ENDBRANCH  17  18
BRANCH  17  22
ATOM     22  N   UNL     1      44.630  59.484  14.680  1.00  0.00    -0.328 N 
ATOM     23  C   UNL     1      45.460  58.480  14.239  1.00  0.00    +0.252 C 
ATOM     24  O   UNL     1      46.066  57.740  15.005  1.00  0.00    -0.269 OA
ATOM     25  H   UNL     1      44.253  60.158  14.030  1.00  0.00    +0.166 HD
BRANCH  23  26
ATOM     26  C   UNL     1      45.628  58.351  12.766  1.00  0.00    +0.039 A 
ATOM     27  C   UNL     1      46.433  57.314  12.279  1.00  0.00    +0.014 A 
ATOM     28  C   UNL     1      44.987  59.212  11.866  1.00  0.00    +0.014 A 
ATOM     29  C   UNL     1      46.619  57.156  10.904  1.00  0.00    +0.001 A 
ATOM     30  C   UNL     1      45.175  59.050  10.491  1.00  0.00    +0.001 A 
ATOM     31  C   UNL     1      45.993  58.026  10.013  1.00  0.00    +0.000 A 
ENDBRANCH  23  26
ENDBRANCH  17  22
ENDBRANCH  14  17
ENDBRANCH   4  11
TORSDOF 7
ENDMDL
