MODEL 1
REMARK VINA RESULT:    -8.209      0.000      0.000
REMARK INTER + INTRA:         -13.528
REMARK INTER:                 -12.048
REMARK INTRA:                  -1.480
REMARK UNBOUND:                -1.480
REMARK SMILES CCOC(=O)/C(C#N)=C/Nc1ccccc1NC(=S)Nc1ccc(C(C)=O)cc1
REMARK SMILES IDX 10 1 9 3 6 4 7 5 8 6 4 7 5 8 3 9 2 10 1 11 11 12 12 13 16 14
REMARK SMILES IDX 13 15 15 16 14 17 17 18 18 19 19 20 20 21 21 24 22 25 29 26
REMARK SMILES IDX 23 27 28 28 24 29 25 30 27 31 26 32
REMARK H PARENT 10 2 17 22 20 23
ROOT
ATOM      1  N   UNL     1      50.492  51.906  17.654  1.00  0.00    -0.359 N 
ATOM      2  H   UNL     1      51.126  52.443  17.058  1.00  0.00    +0.166 HD
ENDROOT
BRANCH   1   3
ATOM      3  C   UNL     1      49.646  51.041  16.981  1.00  0.00    +0.110 C 
ATOM      4  C   UNL     1      48.462  51.301  16.393  1.00  0.00    +0.153 C 
ATOM      5  C   UNL     1      47.926  52.617  16.395  1.00  0.00    +0.108 C 
ATOM      6  N   UNL     1      47.571  53.721  16.448  1.00  0.00    -0.192 NA
BRANCH   4   7
ATOM      7  C   UNL     1      47.659  50.244  15.727  1.00  0.00    +0.350 C 
ATOM      8  O   UNL     1      47.942  49.777  14.633  1.00  0.00    -0.245 OA
BRANCH   7   9
ATOM      9  O   UNL     1      46.596  49.868  16.484  1.00  0.00    -0.462 OA
BRANCH   9  10
ATOM     10  C   UNL     1      46.673  48.560  17.074  1.00  0.00    +0.230 C 
ATOM     11  C   UNL     1      47.052  48.668  18.538  1.00  0.00    +0.049 C 
ENDBRANCH   9  10
ENDBRANCH   7   9
ENDBRANCH   4   7
ENDBRANCH   1   3
BRANCH   1  12
ATOM     12  C   UNL     1      51.095  51.650  18.919  1.00  0.00    +0.062 A 
ATOM     13  C   UNL     1      51.973  50.572  19.107  1.00  0.00    +0.028 A 
ATOM     14  C   UNL     1      50.839  52.537  19.997  1.00  0.00    +0.064 A 
ATOM     15  C   UNL     1      52.618  50.387  20.329  1.00  0.00    +0.002 A 
ATOM     16  C   UNL     1      51.528  52.363  21.199  1.00  0.00    +0.028 A 
ATOM     17  C   UNL     1      52.406  51.288  21.367  1.00  0.00    +0.002 A 
BRANCH  14  18
ATOM     18  N   UNL     1      49.905  53.578  19.759  1.00  0.00    -0.331 N 
ATOM     19  C   UNL     1      50.057  54.943  19.495  1.00  0.00    +0.175 C 
ATOM     20  S   UNL     1      51.459  55.840  19.646  1.00  0.00    -0.040 S 
ATOM     21  N   UNL     1      48.814  55.430  19.069  1.00  0.00    -0.332 N 
ATOM     22  H   UNL     1      48.981  53.358  20.114  1.00  0.00    +0.169 HD
ATOM     23  H   UNL     1      48.274  54.734  18.569  1.00  0.00    +0.169 HD
BRANCH  21  24
ATOM     24  C   UNL     1      48.308  56.744  18.978  1.00  0.00    +0.040 A 
ATOM     25  C   UNL     1      48.032  57.233  17.696  1.00  0.00    +0.027 A 
ATOM     26  C   UNL     1      47.999  57.546  20.078  1.00  0.00    +0.027 A 
ATOM     27  C   UNL     1      47.503  58.516  17.515  1.00  0.00    +0.014 A 
ATOM     28  C   UNL     1      47.469  58.833  19.903  1.00  0.00    +0.014 A 
ATOM     29  C   UNL     1      47.225  59.328  18.620  1.00  0.00    +0.017 A 
BRANCH  29  30
ATOM     30  C   UNL     1      46.661  60.690  18.380  1.00  0.00    +0.159 C 
ATOM     31  O   UNL     1      46.066  60.930  17.331  1.00  0.00    -0.295 OA
ATOM     32  C   UNL     1      46.832  61.747  19.439  1.00  0.00    +0.093 C 
ENDBRANCH  29  30
ENDBRANCH  21  24
ENDBRANCH  14  18
ENDBRANCH   1  12
TORSDOF 8
ENDMDL
MODEL 2
REMARK VINA RESULT:    -8.051      2.191      8.115
REMARK INTER + INTRA:         -13.297
REMARK INTER:                 -11.770
REMARK INTRA:                  -1.526
REMARK UNBOUND:                -1.480
REMARK SMILES CCOC(=O)/C(C#N)=C/Nc1ccccc1NC(=S)Nc1ccc(C(C)=O)cc1
REMARK SMILES IDX 10 1 9 3 6 4 7 5 8 6 4 7 5 8 3 9 2 10 1 11 11 12 12 13 16 14
REMARK SMILES IDX 13 15 15 16 14 17 17 18 18 19 19 20 20 21 21 24 22 25 29 26
REMARK SMILES IDX 23 27 28 28 24 29 25 30 27 31 26 32
REMARK H PARENT 10 2 17 22 20 23
ROOT
ATOM      1  N   UNL     1      49.445  57.137  20.570  1.00  0.00    -0.359 N 
ATOM      2  H   UNL     1      49.095  56.606  21.370  1.00  0.00    +0.166 HD
ENDROOT
BRANCH   1   3
ATOM      3  C   UNL     1      48.568  58.080  20.062  1.00  0.00    +0.110 C 
ATOM      4  C   UNL     1      47.972  58.120  18.854  1.00  0.00    +0.153 C 
ATOM      5  C   UNL     1      48.198  57.090  17.902  1.00  0.00    +0.108 C 
ATOM      6  N   UNL     1      48.444  56.205  17.192  1.00  0.00    -0.192 NA
BRANCH   4   7
ATOM      7  C   UNL     1      47.068  59.226  18.452  1.00  0.00    +0.350 C 
ATOM      8  O   UNL     1      46.676  59.388  17.305  1.00  0.00    -0.245 OA
BRANCH   7   9
ATOM      9  O   UNL     1      46.734  60.013  19.508  1.00  0.00    -0.462 OA
BRANCH   9  10
ATOM     10  C   UNL     1      45.825  61.091  19.230  1.00  0.00    +0.230 C 
ATOM     11  C   UNL     1      46.446  62.415  19.631  1.00  0.00    +0.049 C 
ENDBRANCH   9  10
ENDBRANCH   7   9
ENDBRANCH   4   7
ENDBRANCH   1   3
BRANCH   1  12
ATOM     12  C   UNL     1      50.859  57.289  20.654  1.00  0.00    +0.062 A 
ATOM     13  C   UNL     1      51.442  58.304  21.427  1.00  0.00    +0.028 A 
ATOM     14  C   UNL     1      51.693  56.359  19.980  1.00  0.00    +0.064 A 
ATOM     15  C   UNL     1      52.827  58.384  21.563  1.00  0.00    +0.002 A 
ATOM     16  C   UNL     1      53.075  56.428  20.164  1.00  0.00    +0.028 A 
ATOM     17  C   UNL     1      53.640  57.441  20.945  1.00  0.00    +0.002 A 
BRANCH  14  18
ATOM     18  N   UNL     1      51.045  55.387  19.175  1.00  0.00    -0.331 N 
ATOM     19  C   UNL     1      50.432  54.167  19.476  1.00  0.00    +0.175 C 
ATOM     20  S   UNL     1      50.516  53.335  20.923  1.00  0.00    -0.040 S 
ATOM     21  N   UNL     1      49.718  53.762  18.339  1.00  0.00    -0.332 N 
ATOM     22  H   UNL     1      51.317  55.447  18.200  1.00  0.00    +0.169 HD
ATOM     23  H   UNL     1      49.365  54.546  17.803  1.00  0.00    +0.169 HD
BRANCH  21  24
ATOM     24  C   UNL     1      49.192  52.508  17.964  1.00  0.00    +0.040 A 
ATOM     25  C   UNL     1      47.928  52.502  17.364  1.00  0.00    +0.027 A 
ATOM     26  C   UNL     1      49.879  51.299  18.084  1.00  0.00    +0.027 A 
ATOM     27  C   UNL     1      47.342  51.304  16.938  1.00  0.00    +0.014 A 
ATOM     28  C   UNL     1      49.297  50.096  17.659  1.00  0.00    +0.014 A 
ATOM     29  C   UNL     1      48.022  50.091  17.089  1.00  0.00    +0.017 A 
BRANCH  29  30
ATOM     30  C   UNL     1      47.359  48.838  16.620  1.00  0.00    +0.159 C 
ATOM     31  O   UNL     1      46.195  48.873  16.225  1.00  0.00    -0.295 OA
ATOM     32  C   UNL     1      48.138  47.549  16.638  1.00  0.00    +0.093 C 
ENDBRANCH  29  30
ENDBRANCH  21  24
ENDBRANCH  14  18
ENDBRANCH   1  12
TORSDOF 8
ENDMDL
MODEL 3
REMARK VINA RESULT:    -7.808      1.383      2.015
REMARK INTER + INTRA:         -12.940
REMARK INTER:                 -11.904
REMARK INTRA:                  -1.036
REMARK UNBOUND:                -1.480
REMARK SMILES CCOC(=O)/C(C#N)=C/Nc1ccccc1NC(=S)Nc1ccc(C(C)=O)cc1
REMARK SMILES IDX 10 1 9 3 6 4 7 5 8 6 4 7 5 8 3 9 2 10 1 11 11 12 12 13 16 14
REMARK SMILES IDX 13 15 15 16 14 17 17 18 18 19 19 20 20 21 21 24 22 25 29 26
REMARK SMILES IDX 23 27 28 28 24 29 25 30 27 31 26 32
REMARK H PARENT 10 2 17 22 20 23
ROOT
ATOM      1  N   UNL     1      49.483  52.062  18.413  1.00  0.00    -0.359 N 
ATOM      2  H   UNL     1      49.161  53.022  18.270  1.00  0.00    +0.166 HD
ENDROOT
BRANCH   1   3
ATOM      3  C   UNL     1      49.644  51.319  17.256  1.00  0.00    +0.110 C 
ATOM      4  C   UNL     1      49.144  50.105  16.953  1.00  0.00    +0.153 C 
ATOM      5  C   UNL     1      48.313  49.413  17.875  1.00  0.00    +0.108 C 
ATOM      6  N   UNL     1      47.645  48.928  18.692  1.00  0.00    -0.192 NA
BRANCH   4   7
ATOM      7  C   UNL     1      49.434  49.427  15.665  1.00  0.00    +0.350 C 
ATOM      8  O   UNL     1      50.402  49.699  14.968  1.00  0.00    -0.245 OA
BRANCH   7   9
ATOM      9  O   UNL     1      48.506  48.479  15.373  1.00  0.00    -0.462 OA
BRANCH   9  10
ATOM     10  C   UNL     1      47.441  48.887  14.498  1.00  0.00    +0.230 C 
ATOM     11  C   UNL     1      46.162  48.155  14.857  1.00  0.00    +0.049 C 
ENDBRANCH   9  10
ENDBRANCH   7   9
ENDBRANCH   4   7
ENDBRANCH   1   3
BRANCH   1  12
ATOM     12  C   UNL     1      50.319  51.984  19.564  1.00  0.00    +0.062 A 
ATOM     13  C   UNL     1      51.149  50.877  19.793  1.00  0.00    +0.028 A 
ATOM     14  C   UNL     1      50.347  53.076  20.470  1.00  0.00    +0.064 A 
ATOM     15  C   UNL     1      52.021  50.857  20.881  1.00  0.00    +0.002 A 
ATOM     16  C   UNL     1      51.258  53.058  21.528  1.00  0.00    +0.028 A 
ATOM     17  C   UNL     1      52.084  51.950  21.737  1.00  0.00    +0.002 A 
BRANCH  14  18
ATOM     18  N   UNL     1      49.449  54.144  20.211  1.00  0.00    -0.331 N 
ATOM     19  C   UNL     1      49.616  55.395  19.610  1.00  0.00    +0.175 C 
ATOM     20  S   UNL     1      51.065  56.136  19.231  1.00  0.00    -0.040 S 
ATOM     21  N   UNL     1      48.339  55.921  19.371  1.00  0.00    -0.332 N 
ATOM     22  H   UNL     1      48.628  54.112  20.806  1.00  0.00    +0.169 HD
ATOM     23  H   UNL     1      47.652  55.202  19.181  1.00  0.00    +0.169 HD
BRANCH  21  24
ATOM     24  C   UNL     1      47.907  57.236  19.092  1.00  0.00    +0.040 A 
ATOM     25  C   UNL     1      47.706  58.085  20.186  1.00  0.00    +0.027 A 
ATOM     26  C   UNL     1      47.745  57.753  17.806  1.00  0.00    +0.027 A 
ATOM     27  C   UNL     1      47.303  59.412  19.998  1.00  0.00    +0.014 A 
ATOM     28  C   UNL     1      47.341  59.082  17.612  1.00  0.00    +0.014 A 
ATOM     29  C   UNL     1      47.111  59.917  18.708  1.00  0.00    +0.017 A 
BRANCH  29  30
ATOM     30  C   UNL     1      46.681  61.339  18.555  1.00  0.00    +0.159 C 
ATOM     31  O   UNL     1      46.319  61.755  17.456  1.00  0.00    -0.295 OA
ATOM     32  C   UNL     1      46.694  62.240  19.763  1.00  0.00    +0.093 C 
ENDBRANCH  29  30
ENDBRANCH  21  24
ENDBRANCH  14  18
ENDBRANCH   1  12
TORSDOF 8
ENDMDL
MODEL 4
REMARK VINA RESULT:    -7.319      2.464      8.631
REMARK INTER + INTRA:         -12.221
REMARK INTER:                 -11.502
REMARK INTRA:                  -0.720
REMARK UNBOUND:                -1.480
REMARK SMILES CCOC(=O)/C(C#N)=C/Nc1ccccc1NC(=S)Nc1ccc(C(C)=O)cc1
REMARK SMILES IDX 10 1 9 3 6 4 7 5 8 6 4 7 5 8 3 9 2 10 1 11 11 12 12 13 16 14
REMARK SMILES IDX 13 15 15 16 14 17 17 18 18 19 19 20 20 21 21 24 22 25 29 26
REMARK SMILES IDX 23 27 28 28 24 29 25 30 27 31 26 32
REMARK H PARENT 10 2 17 22 20 23
ROOT
ATOM      1  N   UNL     1      49.031  55.071  18.550  1.00  0.00    -0.359 N 
ATOM      2  H   UNL     1      48.321  54.344  18.437  1.00  0.00    +0.166 HD
ENDROOT
BRANCH   1   3
ATOM      3  C   UNL     1      48.599  56.219  19.194  1.00  0.00    +0.110 C 
ATOM      4  C   UNL     1      48.051  57.330  18.665  1.00  0.00    +0.153 C 
ATOM      5  C   UNL     1      47.830  57.434  17.266  1.00  0.00    +0.108 C 
ATOM      6  N   UNL     1      47.689  57.424  16.114  1.00  0.00    -0.192 NA
BRANCH   4   7
ATOM      7  C   UNL     1      47.662  58.495  19.499  1.00  0.00    +0.350 C 
ATOM      8  O   UNL     1      47.615  58.459  20.721  1.00  0.00    -0.245 OA
BRANCH   7   9
ATOM      9  O   UNL     1      47.378  59.586  18.741  1.00  0.00    -0.462 OA
BRANCH   9  10
ATOM     10  C   UNL     1      47.063  60.790  19.459  1.00  0.00    +0.230 C 
ATOM     11  C   UNL     1      45.680  61.279  19.076  1.00  0.00    +0.049 C 
ENDBRANCH   9  10
ENDBRANCH   7   9
ENDBRANCH   4   7
ENDBRANCH   1   3
BRANCH   1  12
ATOM     12  C   UNL     1      50.323  54.487  18.689  1.00  0.00    +0.062 A 
ATOM     13  C   UNL     1      51.400  55.208  19.226  1.00  0.00    +0.028 A 
ATOM     14  C   UNL     1      50.508  53.128  18.321  1.00  0.00    +0.064 A 
ATOM     15  C   UNL     1      52.634  54.592  19.430  1.00  0.00    +0.002 A 
ATOM     16  C   UNL     1      51.736  52.516  18.575  1.00  0.00    +0.028 A 
ATOM     17  C   UNL     1      52.797  53.247  19.118  1.00  0.00    +0.002 A 
BRANCH  14  18
ATOM     18  N   UNL     1      49.395  52.468  17.738  1.00  0.00    -0.331 N 
ATOM     19  C   UNL     1      48.878  51.177  17.885  1.00  0.00    +0.175 C 
ATOM     20  S   UNL     1      49.618  49.884  18.644  1.00  0.00    -0.040 S 
ATOM     21  N   UNL     1      47.612  51.160  17.285  1.00  0.00    -0.332 N 
ATOM     22  H   UNL     1      49.097  52.902  16.872  1.00  0.00    +0.169 HD
ATOM     23  H   UNL     1      47.139  52.054  17.349  1.00  0.00    +0.169 HD
BRANCH  21  24
ATOM     24  C   UNL     1      46.793  50.091  16.862  1.00  0.00    +0.040 A 
ATOM     25  C   UNL     1      47.125  49.477  15.649  1.00  0.00    +0.027 A 
ATOM     26  C   UNL     1      45.734  49.569  17.606  1.00  0.00    +0.027 A 
ATOM     27  C   UNL     1      46.383  48.393  15.167  1.00  0.00    +0.014 A 
ATOM     28  C   UNL     1      44.987  48.483  17.128  1.00  0.00    +0.014 A 
ATOM     29  C   UNL     1      45.302  47.893  15.901  1.00  0.00    +0.017 A 
BRANCH  29  30
ATOM     30  C   UNL     1      44.538  46.736  15.349  1.00  0.00    +0.159 C 
ATOM     31  O   UNL     1      43.401  46.905  14.913  1.00  0.00    -0.295 OA
ATOM     32  C   UNL     1      45.185  45.375  15.332  1.00  0.00    +0.093 C 
ENDBRANCH  29  30
ENDBRANCH  21  24
ENDBRANCH  14  18
ENDBRANCH   1  12
TORSDOF 8
ENDMDL
MODEL 5
REMARK VINA RESULT:    -7.291      3.377      8.844
REMARK INTER + INTRA:         -12.181
REMARK INTER:                 -11.033
REMARK INTRA:                  -1.148
REMARK UNBOUND:                -1.480
REMARK SMILES CCOC(=O)/C(C#N)=C/Nc1ccccc1NC(=S)Nc1ccc(C(C)=O)cc1
REMARK SMILES IDX 10 1 9 3 6 4 7 5 8 6 4 7 5 8 3 9 2 10 1 11 11 12 12 13 16 14
REMARK SMILES IDX 13 15 15 16 14 17 17 18 18 19 19 20 20 21 21 24 22 25 29 26
REMARK SMILES IDX 23 27 28 28 24 29 25 30 27 31 26 32
REMARK H PARENT 10 2 17 22 20 23
ROOT
ATOM      1  N   UNL     1      48.455  56.668  20.695  1.00  0.00    -0.359 N 
ATOM      2  H   UNL     1      48.003  55.752  20.652  1.00  0.00    +0.166 HD
ENDROOT
BRANCH   1   3
ATOM      3  C   UNL     1      49.686  56.685  21.328  1.00  0.00    +0.110 C 
ATOM      4  C   UNL     1      50.606  55.705  21.417  1.00  0.00    +0.153 C 
ATOM      5  C   UNL     1      50.384  54.445  20.797  1.00  0.00    +0.108 C 
ATOM      6  N   UNL     1      50.113  53.453  20.258  1.00  0.00    -0.192 NA
BRANCH   4   7
ATOM      7  C   UNL     1      51.879  55.877  22.161  1.00  0.00    +0.350 C 
ATOM      8  O   UNL     1      52.012  55.579  23.340  1.00  0.00    -0.245 OA
BRANCH   7   9
ATOM      9  O   UNL     1      52.859  56.391  21.372  1.00  0.00    -0.462 OA
BRANCH   9  10
ATOM     10  C   UNL     1      53.325  57.704  21.720  1.00  0.00    +0.230 C 
ATOM     11  C   UNL     1      54.220  58.248  20.623  1.00  0.00    +0.049 C 
ENDBRANCH   9  10
ENDBRANCH   7   9
ENDBRANCH   4   7
ENDBRANCH   1   3
BRANCH   1  12
ATOM     12  C   UNL     1      48.104  57.451  19.558  1.00  0.00    +0.062 A 
ATOM     13  C   UNL     1      47.847  58.826  19.666  1.00  0.00    +0.028 A 
ATOM     14  C   UNL     1      48.063  56.832  18.282  1.00  0.00    +0.064 A 
ATOM     15  C   UNL     1      47.587  59.590  18.529  1.00  0.00    +0.002 A 
ATOM     16  C   UNL     1      47.845  57.621  17.150  1.00  0.00    +0.028 A 
ATOM     17  C   UNL     1      47.600  58.992  17.275  1.00  0.00    +0.002 A 
BRANCH  14  18
ATOM     18  N   UNL     1      48.282  55.431  18.244  1.00  0.00    -0.331 N 
ATOM     19  C   UNL     1      48.131  54.476  17.234  1.00  0.00    +0.175 C 
ATOM     20  S   UNL     1      47.359  54.688  15.766  1.00  0.00    -0.040 S 
ATOM     21  N   UNL     1      48.755  53.300  17.669  1.00  0.00    -0.332 N 
ATOM     22  H   UNL     1      48.275  55.013  19.168  1.00  0.00    +0.169 HD
ATOM     23  H   UNL     1      49.550  53.481  18.270  1.00  0.00    +0.169 HD
BRANCH  21  24
ATOM     24  C   UNL     1      48.647  51.965  17.224  1.00  0.00    +0.040 A 
ATOM     25  C   UNL     1      47.365  51.403  17.203  1.00  0.00    +0.027 A 
ATOM     26  C   UNL     1      49.715  51.208  16.739  1.00  0.00    +0.027 A 
ATOM     27  C   UNL     1      47.163  50.094  16.751  1.00  0.00    +0.014 A 
ATOM     28  C   UNL     1      49.518  49.896  16.285  1.00  0.00    +0.014 A 
ATOM     29  C   UNL     1      48.242  49.328  16.296  1.00  0.00    +0.017 A 
BRANCH  29  30
ATOM     30  C   UNL     1      47.980  47.936  15.823  1.00  0.00    +0.159 C 
ATOM     31  O   UNL     1      47.210  47.743  14.884  1.00  0.00    -0.295 OA
ATOM     32  C   UNL     1      48.675  46.790  16.510  1.00  0.00    +0.093 C 
ENDBRANCH  29  30
ENDBRANCH  21  24
ENDBRANCH  14  18
ENDBRANCH   1  12
TORSDOF 8
ENDMDL
