MODEL 1
REMARK VINA RESULT:    -9.821      0.000      0.000
REMARK INTER + INTRA:         -15.876
REMARK INTER:                 -14.989
REMARK INTRA:                  -0.887
REMARK UNBOUND:                -0.887
REMARK SMILES Cc1cccc(C(=O)N[C@@H](C(=O)NNC(=O)COc2cc(C)ccc2C(C)C)C(C)C)c1
REMARK SMILES IDX 14 1 15 2 16 3 13 5 11 6 12 7 10 9 9 10 7 11 8 12 6 14 2 15
REMARK SMILES IDX 3 16 32 17 4 18 5 19 1 20 29 21 30 22 31 23 17 24 18 25
REMARK SMILES IDX 19 26 20 27 25 28 21 29 24 30 23 31 22 32 26 33 27 34 28 35
REMARK H PARENT 14 4 13 8 9 13
ROOT
ATOM      1  N   UNL     1      49.809  53.096  17.635  1.00  0.00    -0.265 N 
ATOM      2  C   UNL     1      48.607  53.742  17.388  1.00  0.00    +0.276 C 
ATOM      3  O   UNL     1      47.593  53.149  17.011  1.00  0.00    -0.269 OA
ATOM      4  H   UNL     1      50.459  53.562  18.272  1.00  0.00    +0.191 HD
ENDROOT
BRANCH   1   5
ATOM      5  N   UNL     1      49.741  51.692  17.769  1.00  0.00    -0.266 N 
ATOM      6  C   UNL     1      50.906  51.056  18.191  1.00  0.00    +0.261 C 
ATOM      7  O   UNL     1      52.019  51.546  18.019  1.00  0.00    -0.271 OA
ATOM      8  H   UNL     1      48.871  51.342  18.170  1.00  0.00    +0.191 HD
BRANCH   6   9
ATOM      9  C   UNL     1      50.642  49.656  18.787  1.00  0.00    +0.176 C 
BRANCH   9  10
ATOM     10  N   UNL     1      49.210  49.348  18.629  1.00  0.00    -0.340 N 
ATOM     11  C   UNL     1      48.677  48.872  17.452  1.00  0.00    +0.251 C 
ATOM     12  O   UNL     1      49.343  48.687  16.441  1.00  0.00    -0.269 OA
ATOM     13  H   UNL     1      48.619  49.435  19.448  1.00  0.00    +0.164 HD
BRANCH  11  14
ATOM     14  C   UNL     1      47.216  48.576  17.459  1.00  0.00    +0.040 A 
ATOM     15  C   UNL     1      45.307  47.661  18.662  1.00  0.00    -0.050 A 
ATOM     16  C   UNL     1      44.485  47.993  17.578  1.00  0.00    +0.003 A 
ATOM     17  C   UNL     1      46.673  47.965  18.598  1.00  0.00    +0.017 A 
ATOM     18  C   UNL     1      45.023  48.581  16.431  1.00  0.00    +0.001 A 
ATOM     19  C   UNL     1      46.389  48.868  16.366  1.00  0.00    +0.014 A 
ATOM     20  C   UNL     1      44.733  47.031  19.899  1.00  0.00    +0.044 C 
ENDBRANCH  11  14
ENDBRANCH   9  10
BRANCH   9  21
ATOM     21  C   UNL     1      51.074  49.462  20.259  1.00  0.00    +0.015 C 
ATOM     22  C   UNL     1      50.159  48.525  21.054  1.00  0.00    +0.010 C 
ATOM     23  C   UNL     1      51.237  50.798  20.992  1.00  0.00    +0.010 C 
ENDBRANCH   9  21
ENDBRANCH   6   9
ENDBRANCH   1   5
BRANCH   2  24
ATOM     24  C   UNL     1      48.654  55.254  17.591  1.00  0.00    +0.331 C 
BRANCH  24  25
ATOM     25  O   UNL     1      49.664  55.682  18.500  1.00  0.00    -0.483 OA
BRANCH  25  26
ATOM     26  C   UNL     1      49.273  56.612  19.430  1.00  0.00    +0.123 A 
ATOM     27  C   UNL     1      48.298  57.580  19.153  1.00  0.00    +0.050 A 
ATOM     28  C   UNL     1      49.824  56.507  20.722  1.00  0.00    -0.003 A 
ATOM     29  C   UNL     1      47.883  58.483  20.139  1.00  0.00    -0.047 A 
ATOM     30  C   UNL     1      49.386  57.409  21.708  1.00  0.00    +0.008 A 
ATOM     31  C   UNL     1      48.432  58.387  21.419  1.00  0.00    +0.004 A 
ATOM     32  C   UNL     1      46.803  59.480  19.837  1.00  0.00    +0.044 C 
BRANCH  28  33
ATOM     33  C   UNL     1      50.840  55.424  21.064  1.00  0.00    +0.017 C 
ATOM     34  C   UNL     1      51.551  55.680  22.398  1.00  0.00    +0.012 C 
ATOM     35  C   UNL     1      50.174  54.045  21.059  1.00  0.00    +0.012 C 
ENDBRANCH  28  33
ENDBRANCH  25  26
ENDBRANCH  24  25
ENDBRANCH   2  24
TORSDOF 9
ENDMDL
MODEL 2
REMARK VINA RESULT:    -9.462      0.977      2.482
REMARK INTER + INTRA:         -15.327
REMARK INTER:                 -14.328
REMARK INTRA:                  -0.999
REMARK UNBOUND:                -0.887
REMARK SMILES Cc1cccc(C(=O)N[C@@H](C(=O)NNC(=O)COc2cc(C)ccc2C(C)C)C(C)C)c1
REMARK SMILES IDX 14 1 15 2 16 3 13 5 11 6 12 7 10 9 9 10 7 11 8 12 6 14 2 15
REMARK SMILES IDX 3 16 32 17 4 18 5 19 1 20 29 21 30 22 31 23 17 24 18 25
REMARK SMILES IDX 19 26 20 27 25 28 21 29 24 30 23 31 22 32 26 33 27 34 28 35
REMARK H PARENT 14 4 13 8 9 13
ROOT
ATOM      1  N   UNL     1      50.408  53.381  17.995  1.00  0.00    -0.265 N 
ATOM      2  C   UNL     1      49.097  53.635  17.622  1.00  0.00    +0.276 C 
ATOM      3  O   UNL     1      48.398  52.811  17.027  1.00  0.00    -0.269 OA
ATOM      4  H   UNL     1      50.780  53.930  18.773  1.00  0.00    +0.191 HD
ENDROOT
BRANCH   1   5
ATOM      5  N   UNL     1      50.807  52.027  17.971  1.00  0.00    -0.266 N 
ATOM      6  C   UNL     1      50.597  51.301  19.141  1.00  0.00    +0.261 C 
ATOM      7  O   UNL     1      50.523  51.841  20.242  1.00  0.00    -0.271 OA
ATOM      8  H   UNL     1      50.606  51.537  17.100  1.00  0.00    +0.191 HD
BRANCH   6   9
ATOM      9  C   UNL     1      50.574  49.775  18.904  1.00  0.00    +0.176 C 
BRANCH   9  10
ATOM     10  N   UNL     1      49.174  49.354  18.731  1.00  0.00    -0.340 N 
ATOM     11  C   UNL     1      48.560  49.297  17.499  1.00  0.00    +0.251 C 
ATOM     12  O   UNL     1      49.120  49.612  16.456  1.00  0.00    -0.269 OA
ATOM     13  H   UNL     1      48.675  49.035  19.554  1.00  0.00    +0.164 HD
BRANCH  11  14
ATOM     14  C   UNL     1      47.148  48.820  17.484  1.00  0.00    +0.040 A 
ATOM     15  C   UNL     1      45.341  47.701  18.674  1.00  0.00    -0.050 A 
ATOM     16  C   UNL     1      44.510  47.899  17.564  1.00  0.00    +0.003 A 
ATOM     17  C   UNL     1      46.660  48.174  18.629  1.00  0.00    +0.017 A 
ATOM     18  C   UNL     1      44.997  48.521  16.413  1.00  0.00    +0.001 A 
ATOM     19  C   UNL     1      46.317  48.976  16.368  1.00  0.00    +0.014 A 
ATOM     20  C   UNL     1      44.822  47.034  19.916  1.00  0.00    +0.044 C 
ENDBRANCH  11  14
ENDBRANCH   9  10
BRANCH   9  21
ATOM     21  C   UNL     1      51.264  48.918  19.990  1.00  0.00    +0.015 C 
ATOM     22  C   UNL     1      50.505  48.880  21.321  1.00  0.00    +0.010 C 
ATOM     23  C   UNL     1      52.719  49.338  20.217  1.00  0.00    +0.010 C 
ENDBRANCH   9  21
ENDBRANCH   6   9
ENDBRANCH   1   5
BRANCH   2  24
ATOM     24  C   UNL     1      48.602  55.033  17.984  1.00  0.00    +0.331 C 
BRANCH  24  25
ATOM     25  O   UNL     1      48.065  55.132  19.301  1.00  0.00    -0.483 OA
BRANCH  25  26
ATOM     26  C   UNL     1      48.826  55.831  20.203  1.00  0.00    +0.123 A 
ATOM     27  C   UNL     1      49.903  55.247  20.882  1.00  0.00    +0.050 A 
ATOM     28  C   UNL     1      48.542  57.201  20.364  1.00  0.00    -0.003 A 
ATOM     29  C   UNL     1      50.693  56.001  21.758  1.00  0.00    -0.047 A 
ATOM     30  C   UNL     1      49.353  57.951  21.233  1.00  0.00    +0.008 A 
ATOM     31  C   UNL     1      50.412  57.358  21.926  1.00  0.00    +0.004 A 
ATOM     32  C   UNL     1      51.873  55.370  22.438  1.00  0.00    +0.044 C 
BRANCH  28  33
ATOM     33  C   UNL     1      47.414  57.873  19.590  1.00  0.00    +0.017 C 
ATOM     34  C   UNL     1      46.918  59.158  20.263  1.00  0.00    +0.012 C 
ATOM     35  C   UNL     1      47.845  58.148  18.146  1.00  0.00    +0.012 C 
ENDBRANCH  28  33
ENDBRANCH  25  26
ENDBRANCH  24  25
ENDBRANCH   2  24
TORSDOF 9
ENDMDL
MODEL 3
REMARK VINA RESULT:    -9.368      1.901      3.271
REMARK INTER + INTRA:         -15.183
REMARK INTER:                 -14.110
REMARK INTRA:                  -1.074
REMARK UNBOUND:                -0.887
REMARK SMILES Cc1cccc(C(=O)N[C@@H](C(=O)NNC(=O)COc2cc(C)ccc2C(C)C)C(C)C)c1
REMARK SMILES IDX 14 1 15 2 16 3 13 5 11 6 12 7 10 9 9 10 7 11 8 12 6 14 2 15
REMARK SMILES IDX 3 16 32 17 4 18 5 19 1 20 29 21 30 22 31 23 17 24 18 25
REMARK SMILES IDX 19 26 20 27 25 28 21 29 24 30 23 31 22 32 26 33 27 34 28 35
REMARK H PARENT 14 4 13 8 9 13
ROOT
ATOM      1  N   UNL     1      50.386  53.914  18.377  1.00  0.00    -0.265 N 
ATOM      2  C   UNL     1      49.077  54.189  18.011  1.00  0.00    +0.276 C 
ATOM      3  O   UNL     1      48.402  53.426  17.315  1.00  0.00    -0.269 OA
ATOM      4  H   UNL     1      50.736  54.378  19.218  1.00  0.00    +0.191 HD
ENDROOT
BRANCH   1   5
ATOM      5  N   UNL     1      50.808  52.577  18.210  1.00  0.00    -0.266 N 
ATOM      6  C   UNL     1      50.489  51.696  19.241  1.00  0.00    +0.261 C 
ATOM      7  O   UNL     1      50.293  52.078  20.391  1.00  0.00    -0.271 OA
ATOM      8  H   UNL     1      50.706  52.212  17.263  1.00  0.00    +0.191 HD
BRANCH   6   9
ATOM      9  C   UNL     1      50.517  50.217  18.795  1.00  0.00    +0.176 C 
BRANCH   9  10
ATOM     10  N   UNL     1      49.128  49.754  18.640  1.00  0.00    -0.340 N 
ATOM     11  C   UNL     1      48.618  49.315  17.438  1.00  0.00    +0.251 C 
ATOM     12  O   UNL     1      49.271  49.295  16.402  1.00  0.00    -0.269 OA
ATOM     13  H   UNL     1      48.555  49.702  19.475  1.00  0.00    +0.164 HD
BRANCH  11  14
ATOM     14  C   UNL     1      47.204  48.847  17.450  1.00  0.00    +0.040 A 
ATOM     15  C   UNL     1      45.413  47.737  18.671  1.00  0.00    -0.050 A 
ATOM     16  C   UNL     1      44.561  47.944  17.579  1.00  0.00    +0.003 A 
ATOM     17  C   UNL     1      46.733  48.201  18.602  1.00  0.00    +0.017 A 
ATOM     18  C   UNL     1      45.030  48.567  16.420  1.00  0.00    +0.001 A 
ATOM     19  C   UNL     1      46.352  49.013  16.350  1.00  0.00    +0.014 A 
ATOM     20  C   UNL     1      44.914  47.070  19.921  1.00  0.00    +0.044 C 
ENDBRANCH  11  14
ENDBRANCH   9  10
BRANCH   9  21
ATOM     21  C   UNL     1      51.306  49.256  19.713  1.00  0.00    +0.015 C 
ATOM     22  C   UNL     1      50.582  48.918  21.021  1.00  0.00    +0.010 C 
ATOM     23  C   UNL     1      52.720  49.768  20.003  1.00  0.00    +0.010 C 
ENDBRANCH   9  21
ENDBRANCH   6   9
ENDBRANCH   1   5
BRANCH   2  24
ATOM     24  C   UNL     1      48.553  55.530  18.517  1.00  0.00    +0.331 C 
BRANCH  24  25
ATOM     25  O   UNL     1      48.944  56.641  17.715  1.00  0.00    -0.483 OA
BRANCH  25  26
ATOM     26  C   UNL     1      47.968  57.164  16.904  1.00  0.00    +0.123 A 
ATOM     27  C   UNL     1      47.493  56.483  15.775  1.00  0.00    +0.050 A 
ATOM     28  C   UNL     1      47.386  58.384  17.297  1.00  0.00    -0.003 A 
ATOM     29  C   UNL     1      46.460  57.019  14.996  1.00  0.00    -0.047 A 
ATOM     30  C   UNL     1      46.337  58.903  16.516  1.00  0.00    +0.008 A 
ATOM     31  C   UNL     1      45.884  58.232  15.378  1.00  0.00    +0.004 A 
ATOM     32  C   UNL     1      45.931  56.252  13.820  1.00  0.00    +0.044 C 
BRANCH  28  33
ATOM     33  C   UNL     1      47.844  59.113  18.555  1.00  0.00    +0.017 C 
ATOM     34  C   UNL     1      47.621  60.627  18.476  1.00  0.00    +0.012 C 
ATOM     35  C   UNL     1      47.156  58.527  19.792  1.00  0.00    +0.012 C 
ENDBRANCH  28  33
ENDBRANCH  25  26
ENDBRANCH  24  25
ENDBRANCH   2  24
TORSDOF 9
ENDMDL
MODEL 4
REMARK VINA RESULT:    -9.303      2.173      3.708
REMARK INTER + INTRA:         -15.085
REMARK INTER:                 -13.939
REMARK INTRA:                  -1.146
REMARK UNBOUND:                -0.887
REMARK SMILES Cc1cccc(C(=O)N[C@@H](C(=O)NNC(=O)COc2cc(C)ccc2C(C)C)C(C)C)c1
REMARK SMILES IDX 14 1 15 2 16 3 13 5 11 6 12 7 10 9 9 10 7 11 8 12 6 14 2 15
REMARK SMILES IDX 3 16 32 17 4 18 5 19 1 20 29 21 30 22 31 23 17 24 18 25
REMARK SMILES IDX 19 26 20 27 25 28 21 29 24 30 23 31 22 32 26 33 27 34 28 35
REMARK H PARENT 14 4 13 8 9 13
ROOT
ATOM      1  N   UNL     1      49.409  53.963  18.567  1.00  0.00    -0.265 N 
ATOM      2  C   UNL     1      48.702  54.607  17.563  1.00  0.00    +0.276 C 
ATOM      3  O   UNL     1      48.254  54.018  16.576  1.00  0.00    -0.269 OA
ATOM      4  H   UNL     1      49.420  54.415  19.485  1.00  0.00    +0.191 HD
ENDROOT
BRANCH   1   5
ATOM      5  N   UNL     1      49.307  52.555  18.593  1.00  0.00    -0.266 N 
ATOM      6  C   UNL     1      50.498  51.848  18.456  1.00  0.00    +0.261 C 
ATOM      7  O   UNL     1      51.482  52.324  17.898  1.00  0.00    -0.271 OA
ATOM      8  H   UNL     1      48.644  52.187  19.275  1.00  0.00    +0.191 HD
BRANCH   6   9
ATOM      9  C   UNL     1      50.398  50.399  18.983  1.00  0.00    +0.176 C 
BRANCH   9  10
ATOM     10  N   UNL     1      49.021  49.922  18.768  1.00  0.00    -0.340 N 
ATOM     11  C   UNL     1      48.629  49.271  17.619  1.00  0.00    +0.251 C 
ATOM     12  O   UNL     1      49.386  49.057  16.680  1.00  0.00    -0.269 OA
ATOM     13  H   UNL     1      48.363  50.029  19.532  1.00  0.00    +0.164 HD
BRANCH  11  14
ATOM     14  C   UNL     1      47.210  48.821  17.564  1.00  0.00    +0.040 A 
ATOM     15  C   UNL     1      45.360  47.704  18.687  1.00  0.00    -0.050 A 
ATOM     16  C   UNL     1      44.554  47.948  17.568  1.00  0.00    +0.003 A 
ATOM     17  C   UNL     1      46.687  48.152  18.680  1.00  0.00    +0.017 A 
ATOM     18  C   UNL     1      45.075  48.594  16.445  1.00  0.00    +0.001 A 
ATOM     19  C   UNL     1      46.403  49.025  16.437  1.00  0.00    +0.014 A 
ATOM     20  C   UNL     1      44.805  47.012  19.900  1.00  0.00    +0.044 C 
ENDBRANCH  11  14
ENDBRANCH   9  10
BRANCH   9  21
ATOM     21  C   UNL     1      50.814  50.192  20.457  1.00  0.00    +0.015 C 
ATOM     22  C   UNL     1      52.270  50.573  20.748  1.00  0.00    +0.010 C 
ATOM     23  C   UNL     1      50.528  48.767  20.942  1.00  0.00    +0.010 C 
ENDBRANCH   9  21
ENDBRANCH   6   9
ENDBRANCH   1   5
BRANCH   2  24
ATOM     24  C   UNL     1      48.553  56.112  17.766  1.00  0.00    +0.331 C 
BRANCH  24  25
ATOM     25  O   UNL     1      48.226  56.825  16.576  1.00  0.00    -0.483 OA
BRANCH  25  26
ATOM     26  C   UNL     1      47.341  57.862  16.728  1.00  0.00    +0.123 A 
ATOM     27  C   UNL     1      47.517  58.858  17.697  1.00  0.00    +0.050 A 
ATOM     28  C   UNL     1      46.279  57.946  15.806  1.00  0.00    -0.003 A 
ATOM     29  C   UNL     1      46.624  59.932  17.793  1.00  0.00    -0.047 A 
ATOM     30  C   UNL     1      45.399  59.039  15.902  1.00  0.00    +0.008 A 
ATOM     31  C   UNL     1      45.566  60.016  16.886  1.00  0.00    +0.004 A 
ATOM     32  C   UNL     1      46.858  61.015  18.805  1.00  0.00    +0.044 C 
BRANCH  28  33
ATOM     33  C   UNL     1      46.102  56.908  14.704  1.00  0.00    +0.017 C 
ATOM     34  C   UNL     1      44.660  56.830  14.191  1.00  0.00    +0.012 C 
ATOM     35  C   UNL     1      47.075  57.179  13.552  1.00  0.00    +0.012 C 
ENDBRANCH  28  33
ENDBRANCH  25  26
ENDBRANCH  24  25
ENDBRANCH   2  24
TORSDOF 9
ENDMDL
MODEL 5
REMARK VINA RESULT:    -8.745      2.665      4.791
REMARK INTER + INTRA:         -14.233
REMARK INTER:                 -12.984
REMARK INTRA:                  -1.249
REMARK UNBOUND:                -0.887
REMARK SMILES Cc1cccc(C(=O)N[C@@H](C(=O)NNC(=O)COc2cc(C)ccc2C(C)C)C(C)C)c1
REMARK SMILES IDX 14 1 15 2 16 3 13 5 11 6 12 7 10 9 9 10 7 11 8 12 6 14 2 15
REMARK SMILES IDX 3 16 32 17 4 18 5 19 1 20 29 21 30 22 31 23 17 24 18 25
REMARK SMILES IDX 19 26 20 27 25 28 21 29 24 30 23 31 22 32 26 33 27 34 28 35
REMARK H PARENT 14 4 13 8 9 13
ROOT
ATOM      1  N   UNL     1      49.113  56.163  19.238  1.00  0.00    -0.265 N 
ATOM      2  C   UNL     1      48.455  56.721  18.152  1.00  0.00    +0.276 C 
ATOM      3  O   UNL     1      48.363  56.153  17.061  1.00  0.00    -0.269 OA
ATOM      4  H   UNL     1      48.839  56.499  20.164  1.00  0.00    +0.191 HD
ENDROOT
BRANCH   1   5
ATOM      5  N   UNL     1      49.381  54.779  19.156  1.00  0.00    -0.266 N 
ATOM      6  C   UNL     1      50.724  54.410  19.161  1.00  0.00    +0.261 C 
ATOM      7  O   UNL     1      51.614  55.172  18.794  1.00  0.00    -0.271 OA
ATOM      8  H   UNL     1      48.754  54.190  19.702  1.00  0.00    +0.191 HD
BRANCH   6   9
ATOM      9  C   UNL     1      50.938  52.936  19.571  1.00  0.00    +0.176 C 
BRANCH   9  10
ATOM     10  N   UNL     1      49.943  52.110  18.865  1.00  0.00    -0.340 N 
ATOM     11  C   UNL     1      50.294  51.145  17.946  1.00  0.00    +0.251 C 
ATOM     12  O   UNL     1      51.454  50.913  17.629  1.00  0.00    -0.269 OA
ATOM     13  H   UNL     1      48.970  52.224  19.124  1.00  0.00    +0.164 HD
BRANCH  11  14
ATOM     14  C   UNL     1      49.174  50.370  17.341  1.00  0.00    +0.040 A 
ATOM     15  C   UNL     1      47.272  48.889  17.688  1.00  0.00    -0.050 A 
ATOM     16  C   UNL     1      47.037  48.894  16.308  1.00  0.00    +0.003 A 
ATOM     17  C   UNL     1      48.340  49.639  18.199  1.00  0.00    +0.017 A 
ATOM     18  C   UNL     1      47.878  49.601  15.446  1.00  0.00    +0.001 A 
ATOM     19  C   UNL     1      48.950  50.334  15.958  1.00  0.00    +0.014 A 
ATOM     20  C   UNL     1      46.370  48.132  18.621  1.00  0.00    +0.044 C 
ENDBRANCH  11  14
ENDBRANCH   9  10
BRANCH   9  21
ATOM     21  C   UNL     1      50.894  52.650  21.089  1.00  0.00    +0.015 C 
ATOM     22  C   UNL     1      51.579  53.724  21.941  1.00  0.00    +0.010 C 
ATOM     23  C   UNL     1      51.449  51.264  21.431  1.00  0.00    +0.010 C 
ENDBRANCH   9  21
ENDBRANCH   6   9
ENDBRANCH   1   5
BRANCH   2  24
ATOM     24  C   UNL     1      47.882  58.111  18.412  1.00  0.00    +0.331 C 
BRANCH  24  25
ATOM     25  O   UNL     1      47.143  58.645  17.316  1.00  0.00    -0.483 OA
BRANCH  25  26
ATOM     26  C   UNL     1      46.376  59.747  17.596  1.00  0.00    +0.123 A 
ATOM     27  C   UNL     1      46.729  60.669  18.590  1.00  0.00    +0.050 A 
ATOM     28  C   UNL     1      45.250  59.975  16.781  1.00  0.00    -0.003 A 
ATOM     29  C   UNL     1      45.952  61.812  18.817  1.00  0.00    -0.047 A 
ATOM     30  C   UNL     1      44.488  61.135  17.007  1.00  0.00    +0.008 A 
ATOM     31  C   UNL     1      44.831  62.039  18.015  1.00  0.00    +0.004 A 
ATOM     32  C   UNL     1      46.373  62.814  19.851  1.00  0.00    +0.044 C 
BRANCH  28  33
ATOM     33  C   UNL     1      44.881  59.018  15.654  1.00  0.00    +0.017 C 
ATOM     34  C   UNL     1      43.383  58.692  15.621  1.00  0.00    +0.012 C 
ATOM     35  C   UNL     1      45.345  59.576  14.304  1.00  0.00    +0.012 C 
ENDBRANCH  28  33
ENDBRANCH  25  26
ENDBRANCH  24  25
ENDBRANCH   2  24
TORSDOF 9
ENDMDL
