MODEL 1
REMARK VINA RESULT:    -8.778      0.000      0.000
REMARK INTER + INTRA:         -12.897
REMARK INTER:                 -12.114
REMARK INTRA:                  -0.783
REMARK UNBOUND:                -0.783
REMARK SMILES COc1ccccc1Nc1nc(NCCO)c2ccccc2n1
REMARK SMILES IDX 10 1 23 2 22 3 21 4 20 5 19 6 18 7 17 8 12 9 11 10 9 11 8 13
REMARK SMILES IDX 3 14 4 15 5 16 7 17 6 18 2 19 1 20 13 21 14 23 15 24 16 25
REMARK H PARENT 9 12 13 22 16 26
ROOT
ATOM      1  C   UNL     1      50.911  54.308  20.174  1.00  0.00    +0.229 A 
ATOM      2  N   UNL     1      49.712  54.771  19.795  1.00  0.00    -0.213 NA
ATOM      3  C   UNL     1      49.273  55.910  20.338  1.00  0.00    +0.078 A 
ATOM      4  C   UNL     1      48.023  56.389  19.963  1.00  0.00    +0.029 A 
ATOM      5  C   UNL     1      47.490  57.566  20.496  1.00  0.00    +0.002 A 
ATOM      6  C   UNL     1      48.218  58.289  21.430  1.00  0.00    +0.001 A 
ATOM      7  C   UNL     1      49.474  57.830  21.818  1.00  0.00    +0.014 A 
ATOM      8  C   UNL     1      50.017  56.639  21.268  1.00  0.00    +0.043 A 
ATOM      9  C   UNL     1      51.272  56.096  21.583  1.00  0.00    +0.139 A 
ATOM     10  N   UNL     1      51.698  54.936  21.054  1.00  0.00    -0.195 NA
ENDROOT
BRANCH   1  11
ATOM     11  N   UNL     1      51.287  53.115  19.574  1.00  0.00    -0.321 N 
ATOM     12  H   UNL     1      52.010  53.274  18.885  1.00  0.00    +0.170 HD
BRANCH  11  13
ATOM     13  C   UNL     1      50.903  51.770  19.702  1.00  0.00    +0.083 A 
ATOM     14  C   UNL     1      50.175  51.177  18.641  1.00  0.00    +0.142 A 
ATOM     15  C   UNL     1      49.771  49.840  18.719  1.00  0.00    +0.048 A 
ATOM     16  C   UNL     1      50.086  49.079  19.845  1.00  0.00    +0.004 A 
ATOM     17  C   UNL     1      51.205  50.985  20.820  1.00  0.00    +0.030 A 
ATOM     18  C   UNL     1      50.800  49.650  20.893  1.00  0.00    +0.002 A 
BRANCH  14  19
ATOM     19  O   UNL     1      49.916  52.014  17.577  1.00  0.00    -0.495 OA
ATOM     20  C   UNL     1      48.552  52.270  17.271  1.00  0.00    +0.278 C 
ENDBRANCH  14  19
ENDBRANCH  11  13
ENDBRANCH   1  11
BRANCH   9  21
ATOM     21  N   UNL     1      52.097  56.765  22.517  1.00  0.00    -0.367 N 
ATOM     22  H   UNL     1      51.560  57.512  22.959  1.00  0.00    +0.162 HD
BRANCH  21  23
ATOM     23  C   UNL     1      53.325  57.335  21.957  1.00  0.00    +0.142 C 
BRANCH  23  24
ATOM     24  C   UNL     1      53.042  58.769  21.494  1.00  0.00    +0.177 C 
BRANCH  24  25
ATOM     25  O   UNL     1      53.042  59.653  22.618  1.00  0.00    -0.395 OA
ATOM     26  H   UNL     1      53.486  60.470  22.329  1.00  0.00    +0.210 HD
ENDBRANCH  24  25
ENDBRANCH  23  24
ENDBRANCH  21  23
ENDBRANCH   9  21
TORSDOF 7
ENDMDL
MODEL 2
REMARK VINA RESULT:    -8.411      0.997      1.894
REMARK INTER + INTRA:         -12.390
REMARK INTER:                 -11.922
REMARK INTRA:                  -0.468
REMARK UNBOUND:                -0.783
REMARK SMILES COc1ccccc1Nc1nc(NCCO)c2ccccc2n1
REMARK SMILES IDX 10 1 23 2 22 3 21 4 20 5 19 6 18 7 17 8 12 9 11 10 9 11 8 13
REMARK SMILES IDX 3 14 4 15 5 16 7 17 6 18 2 19 1 20 13 21 14 23 15 24 16 25
REMARK H PARENT 9 12 13 22 16 26
ROOT
ATOM      1  C   UNL     1      50.694  54.308  20.007  1.00  0.00    +0.229 A 
ATOM      2  N   UNL     1      49.501  54.844  19.718  1.00  0.00    -0.213 NA
ATOM      3  C   UNL     1      49.160  55.989  20.315  1.00  0.00    +0.078 A 
ATOM      4  C   UNL     1      47.916  56.544  20.033  1.00  0.00    +0.029 A 
ATOM      5  C   UNL     1      47.483  57.732  20.627  1.00  0.00    +0.002 A 
ATOM      6  C   UNL     1      48.307  58.390  21.530  1.00  0.00    +0.001 A 
ATOM      7  C   UNL     1      49.558  57.854  21.825  1.00  0.00    +0.014 A 
ATOM      8  C   UNL     1      50.000  56.652  21.213  1.00  0.00    +0.043 A 
ATOM      9  C   UNL     1      51.241  56.035  21.434  1.00  0.00    +0.139 A 
ATOM     10  N   UNL     1      51.568  54.869  20.851  1.00  0.00    -0.195 NA
ENDROOT
BRANCH   1  11
ATOM     11  N   UNL     1      50.966  53.113  19.357  1.00  0.00    -0.321 N 
ATOM     12  H   UNL     1      51.960  53.016  19.189  1.00  0.00    +0.170 HD
BRANCH  11  13
ATOM     13  C   UNL     1      50.199  52.035  18.888  1.00  0.00    +0.083 A 
ATOM     14  C   UNL     1      50.482  50.741  19.393  1.00  0.00    +0.142 A 
ATOM     15  C   UNL     1      49.743  49.634  18.958  1.00  0.00    +0.048 A 
ATOM     16  C   UNL     1      48.720  49.799  18.024  1.00  0.00    +0.004 A 
ATOM     17  C   UNL     1      49.168  52.171  17.952  1.00  0.00    +0.030 A 
ATOM     18  C   UNL     1      48.434  51.064  17.522  1.00  0.00    +0.002 A 
BRANCH  14  19
ATOM     19  O   UNL     1      51.509  50.688  20.309  1.00  0.00    -0.495 OA
ATOM     20  C   UNL     1      52.681  49.980  19.927  1.00  0.00    +0.278 C 
ENDBRANCH  14  19
ENDBRANCH  11  13
ENDBRANCH   1  11
BRANCH   9  21
ATOM     21  N   UNL     1      52.158  56.633  22.328  1.00  0.00    -0.367 N 
ATOM     22  H   UNL     1      51.683  57.377  22.841  1.00  0.00    +0.162 HD
BRANCH  21  23
ATOM     23  C   UNL     1      53.361  57.186  21.700  1.00  0.00    +0.142 C 
BRANCH  23  24
ATOM     24  C   UNL     1      53.119  58.665  21.379  1.00  0.00    +0.177 C 
BRANCH  24  25
ATOM     25  O   UNL     1      53.128  59.433  22.586  1.00  0.00    -0.395 OA
ATOM     26  H   UNL     1      53.333  60.350  22.331  1.00  0.00    +0.210 HD
ENDBRANCH  24  25
ENDBRANCH  23  24
ENDBRANCH  21  23
ENDBRANCH   9  21
TORSDOF 7
ENDMDL
MODEL 3
REMARK VINA RESULT:    -7.749      1.874      7.430
REMARK INTER + INTRA:         -11.476
REMARK INTER:                 -10.645
REMARK INTRA:                  -0.831
REMARK UNBOUND:                -0.783
REMARK SMILES COc1ccccc1Nc1nc(NCCO)c2ccccc2n1
REMARK SMILES IDX 10 1 23 2 22 3 21 4 20 5 19 6 18 7 17 8 12 9 11 10 9 11 8 13
REMARK SMILES IDX 3 14 4 15 5 16 7 17 6 18 2 19 1 20 13 21 14 23 15 24 16 25
REMARK H PARENT 9 12 13 22 16 26
ROOT
ATOM      1  C   UNL     1      50.001  53.605  19.017  1.00  0.00    +0.229 A 
ATOM      2  N   UNL     1      50.649  52.901  19.955  1.00  0.00    -0.213 NA
ATOM      3  C   UNL     1      50.544  51.570  19.932  1.00  0.00    +0.078 A 
ATOM      4  C   UNL     1      51.199  50.832  20.912  1.00  0.00    +0.029 A 
ATOM      5  C   UNL     1      51.128  49.437  20.962  1.00  0.00    +0.002 A 
ATOM      6  C   UNL     1      50.381  48.753  20.013  1.00  0.00    +0.001 A 
ATOM      7  C   UNL     1      49.718  49.471  19.020  1.00  0.00    +0.014 A 
ATOM      8  C   UNL     1      49.801  50.887  18.966  1.00  0.00    +0.043 A 
ATOM      9  C   UNL     1      49.181  51.702  18.006  1.00  0.00    +0.139 A 
ATOM     10  N   UNL     1      49.268  53.043  18.050  1.00  0.00    -0.195 NA
ENDROOT
BRANCH   1  11
ATOM     11  N   UNL     1      50.150  54.981  19.119  1.00  0.00    -0.321 N 
ATOM     12  H   UNL     1      50.893  55.305  18.514  1.00  0.00    +0.170 HD
BRANCH  11  13
ATOM     13  C   UNL     1      49.522  56.001  19.851  1.00  0.00    +0.083 A 
ATOM     14  C   UNL     1      50.207  56.546  20.966  1.00  0.00    +0.142 A 
ATOM     15  C   UNL     1      49.624  57.565  21.727  1.00  0.00    +0.048 A 
ATOM     16  C   UNL     1      48.361  58.054  21.391  1.00  0.00    +0.004 A 
ATOM     17  C   UNL     1      48.257  56.509  19.537  1.00  0.00    +0.030 A 
ATOM     18  C   UNL     1      47.680  57.527  20.299  1.00  0.00    +0.002 A 
BRANCH  14  19
ATOM     19  O   UNL     1      51.445  55.993  21.212  1.00  0.00    -0.495 OA
ATOM     20  C   UNL     1      51.663  55.441  22.503  1.00  0.00    +0.278 C 
ENDBRANCH  14  19
ENDBRANCH  11  13
ENDBRANCH   1  11
BRANCH   9  21
ATOM     21  N   UNL     1      48.406  51.100  16.988  1.00  0.00    -0.367 N 
ATOM     22  H   UNL     1      48.249  50.120  17.228  1.00  0.00    +0.162 HD
BRANCH  21  23
ATOM     23  C   UNL     1      48.991  51.170  15.646  1.00  0.00    +0.142 C 
BRANCH  23  24
ATOM     24  C   UNL     1      49.744  49.865  15.363  1.00  0.00    +0.177 C 
BRANCH  24  25
ATOM     25  O   UNL     1      51.152  50.074  15.511  1.00  0.00    -0.395 OA
ATOM     26  H   UNL     1      51.590  49.454  14.901  1.00  0.00    +0.210 HD
ENDBRANCH  24  25
ENDBRANCH  23  24
ENDBRANCH  21  23
ENDBRANCH   9  21
TORSDOF 7
ENDMDL
MODEL 4
REMARK VINA RESULT:    -7.672      3.267      7.087
REMARK INTER + INTRA:         -11.370
REMARK INTER:                 -10.747
REMARK INTRA:                  -0.623
REMARK UNBOUND:                -0.783
REMARK SMILES COc1ccccc1Nc1nc(NCCO)c2ccccc2n1
REMARK SMILES IDX 10 1 23 2 22 3 21 4 20 5 19 6 18 7 17 8 12 9 11 10 9 11 8 13
REMARK SMILES IDX 3 14 4 15 5 16 7 17 6 18 2 19 1 20 13 21 14 23 15 24 16 25
REMARK H PARENT 9 12 13 22 16 26
ROOT
ATOM      1  C   UNL     1      49.158  52.567  17.893  1.00  0.00    +0.229 A 
ATOM      2  N   UNL     1      47.924  52.189  17.535  1.00  0.00    -0.213 NA
ATOM      3  C   UNL     1      47.612  50.893  17.613  1.00  0.00    +0.078 A 
ATOM      4  C   UNL     1      46.338  50.488  17.227  1.00  0.00    +0.029 A 
ATOM      5  C   UNL     1      45.941  49.149  17.268  1.00  0.00    +0.002 A 
ATOM      6  C   UNL     1      46.835  48.180  17.702  1.00  0.00    +0.001 A 
ATOM      7  C   UNL     1      48.115  48.562  18.097  1.00  0.00    +0.014 A 
ATOM      8  C   UNL     1      48.513  49.925  18.063  1.00  0.00    +0.043 A 
ATOM      9  C   UNL     1      49.771  50.414  18.446  1.00  0.00    +0.139 A 
ATOM     10  N   UNL     1      50.088  51.716  18.340  1.00  0.00    -0.195 NA
ENDROOT
BRANCH   1  11
ATOM     11  N   UNL     1      49.406  53.927  17.771  1.00  0.00    -0.321 N 
ATOM     12  H   UNL     1      50.036  54.107  17.000  1.00  0.00    +0.170 HD
BRANCH  11  13
ATOM     13  C   UNL     1      48.994  55.082  18.455  1.00  0.00    +0.083 A 
ATOM     14  C   UNL     1      48.431  56.142  17.703  1.00  0.00    +0.142 A 
ATOM     15  C   UNL     1      48.003  57.313  18.339  1.00  0.00    +0.048 A 
ATOM     16  C   UNL     1      48.129  57.443  19.722  1.00  0.00    +0.004 A 
ATOM     17  C   UNL     1      49.109  55.239  19.841  1.00  0.00    +0.030 A 
ATOM     18  C   UNL     1      48.680  56.409  20.471  1.00  0.00    +0.002 A 
BRANCH  14  19
ATOM     19  O   UNL     1      48.352  55.913  16.346  1.00  0.00    -0.495 OA
ATOM     20  C   UNL     1      47.529  56.789  15.588  1.00  0.00    +0.278 C 
ENDBRANCH  14  19
ENDBRANCH  11  13
ENDBRANCH   1  11
BRANCH   9  21
ATOM     21  N   UNL     1      50.749  49.508  18.915  1.00  0.00    -0.367 N 
ATOM     22  H   UNL     1      50.365  48.563  18.888  1.00  0.00    +0.162 HD
BRANCH  21  23
ATOM     23  C   UNL     1      51.241  49.779  20.268  1.00  0.00    +0.142 C 
BRANCH  23  24
ATOM     24  C   UNL     1      52.677  50.310  20.179  1.00  0.00    +0.177 C 
BRANCH  24  25
ATOM     25  O   UNL     1      53.600  49.218  20.158  1.00  0.00    -0.395 OA
ATOM     26  H   UNL     1      53.149  48.480  19.711  1.00  0.00    +0.210 HD
ENDBRANCH  24  25
ENDBRANCH  23  24
ENDBRANCH  21  23
ENDBRANCH   9  21
TORSDOF 7
ENDMDL
MODEL 5
REMARK VINA RESULT:    -7.528      2.503      7.031
REMARK INTER + INTRA:         -11.171
REMARK INTER:                 -10.513
REMARK INTRA:                  -0.658
REMARK UNBOUND:                -0.783
REMARK SMILES COc1ccccc1Nc1nc(NCCO)c2ccccc2n1
REMARK SMILES IDX 10 1 23 2 22 3 21 4 20 5 19 6 18 7 17 8 12 9 11 10 9 11 8 13
REMARK SMILES IDX 3 14 4 15 5 16 7 17 6 18 2 19 1 20 13 21 14 23 15 24 16 25
REMARK H PARENT 9 12 13 22 16 26
ROOT
ATOM      1  C   UNL     1      49.265  52.828  18.063  1.00  0.00    +0.229 A 
ATOM      2  N   UNL     1      48.042  52.454  17.663  1.00  0.00    -0.213 NA
ATOM      3  C   UNL     1      47.784  51.148  17.556  1.00  0.00    +0.078 A 
ATOM      4  C   UNL     1      46.523  50.751  17.125  1.00  0.00    +0.029 A 
ATOM      5  C   UNL     1      46.181  49.404  16.975  1.00  0.00    +0.002 A 
ATOM      6  C   UNL     1      47.118  48.421  17.258  1.00  0.00    +0.001 A 
ATOM      7  C   UNL     1      48.387  48.796  17.694  1.00  0.00    +0.014 A 
ATOM      8  C   UNL     1      48.729  50.164  17.855  1.00  0.00    +0.043 A 
ATOM      9  C   UNL     1      49.971  50.646  18.295  1.00  0.00    +0.139 A 
ATOM     10  N   UNL     1      50.235  51.961  18.376  1.00  0.00    -0.195 NA
ENDROOT
BRANCH   1  11
ATOM     11  N   UNL     1      49.456  54.201  18.137  1.00  0.00    -0.321 N 
ATOM     12  H   UNL     1      49.857  54.552  17.276  1.00  0.00    +0.170 HD
BRANCH  11  13
ATOM     13  C   UNL     1      49.228  55.189  19.107  1.00  0.00    +0.083 A 
ATOM     14  C   UNL     1      50.304  55.563  19.950  1.00  0.00    +0.142 A 
ATOM     15  C   UNL     1      50.127  56.544  20.932  1.00  0.00    +0.048 A 
ATOM     16  C   UNL     1      48.887  57.164  21.086  1.00  0.00    +0.004 A 
ATOM     17  C   UNL     1      47.995  55.826  19.283  1.00  0.00    +0.030 A 
ATOM     18  C   UNL     1      47.824  56.806  20.264  1.00  0.00    +0.002 A 
BRANCH  14  19
ATOM     19  O   UNL     1      51.484  54.891  19.716  1.00  0.00    -0.495 OA
ATOM     20  C   UNL     1      52.689  55.553  20.076  1.00  0.00    +0.278 C 
ENDBRANCH  14  19
ENDBRANCH  11  13
ENDBRANCH   1  11
BRANCH   9  21
ATOM     21  N   UNL     1      50.992  49.723  18.621  1.00  0.00    -0.367 N 
ATOM     22  H   UNL     1      50.699  48.789  18.331  1.00  0.00    +0.162 HD
BRANCH  21  23
ATOM     23  C   UNL     1      51.357  49.684  20.039  1.00  0.00    +0.142 C 
BRANCH  23  24
ATOM     24  C   UNL     1      52.752  50.297  20.210  1.00  0.00    +0.177 C 
BRANCH  24  25
ATOM     25  O   UNL     1      53.743  49.266  20.187  1.00  0.00    -0.395 OA
ATOM     26  H   UNL     1      54.087  49.190  21.094  1.00  0.00    +0.210 HD
ENDBRANCH  24  25
ENDBRANCH  23  24
ENDBRANCH  21  23
ENDBRANCH   9  21
TORSDOF 7
ENDMDL
