MODEL 1
REMARK VINA RESULT:   -10.213      0.000      0.000
REMARK INTER + INTRA:         -14.955
REMARK INTER:                 -13.796
REMARK INTRA:                  -1.159
REMARK UNBOUND:                -1.159
REMARK SMILES C/C(CC(=O)NC1C2CC3CC(C2)CC1C3)=N\NC(=O)C(=O)Nc1ccccc1C
REMARK SMILES IDX 19 1 20 2 18 3 21 5 23 6 22 7 24 9 29 10 28 11 27 12 25 13
REMARK SMILES IDX 26 14 30 15 17 16 2 17 1 18 3 19 4 20 5 21 6 22 7 24 8 25
REMARK SMILES IDX 15 26 13 27 9 28 16 29 14 30 12 31 10 32 11 33
REMARK H PARENT 18 4 23 8 6 23
ROOT
ATOM      1  C   UNL     1      51.594  53.958  18.913  1.00  0.00    +0.329 C 
ATOM      2  O   UNL     1      52.683  53.744  18.391  1.00  0.00    -0.262 OA
ATOM      3  N   UNL     1      50.636  53.048  19.315  1.00  0.00    -0.239 N 
ATOM      4  H   UNL     1      49.797  53.416  19.758  1.00  0.00    +0.194 HD
ENDROOT
BRANCH   1   5
ATOM      5  C   UNL     1      51.166  55.410  19.186  1.00  0.00    +0.315 C 
ATOM      6  N   UNL     1      49.819  55.505  19.459  1.00  0.00    -0.317 N 
ATOM      7  O   UNL     1      52.019  56.287  19.137  1.00  0.00    -0.263 OA
ATOM      8  H   UNL     1      49.338  54.609  19.436  1.00  0.00    +0.170 HD
BRANCH   6   9
ATOM      9  C   UNL     1      49.063  56.655  19.763  1.00  0.00    +0.044 A 
ATOM     10  C   UNL     1      48.308  57.265  18.737  1.00  0.00    -0.027 A 
ATOM     11  C   UNL     1      47.548  58.411  19.029  1.00  0.00    +0.005 A 
ATOM     12  C   UNL     1      47.532  58.950  20.314  1.00  0.00    +0.000 A 
ATOM     13  C   UNL     1      49.035  57.209  21.048  1.00  0.00    +0.026 A 
ATOM     14  C   UNL     1      48.275  58.350  21.322  1.00  0.00    +0.002 A 
ATOM     15  C   UNL     1      48.286  56.732  17.329  1.00  0.00    +0.046 C 
ENDBRANCH   6   9
ENDBRANCH   1   5
BRANCH   3  16
ATOM     16  N   UNL     1      50.850  51.712  19.183  1.00  0.00    -0.182 NA
ATOM     17  C   UNL     1      51.426  51.075  20.161  1.00  0.00    +0.045 C 
ATOM     18  C   UNL     1      51.854  51.707  21.465  1.00  0.00    +0.064 C 
BRANCH  17  19
ATOM     19  C   UNL     1      51.680  49.596  19.974  1.00  0.00    +0.153 C 
BRANCH  19  20
ATOM     20  C   UNL     1      50.413  48.789  19.816  1.00  0.00    +0.225 C 
ATOM     21  O   UNL     1      49.890  48.182  20.745  1.00  0.00    -0.275 OA
ATOM     22  N   UNL     1      49.882  48.833  18.543  1.00  0.00    -0.352 N 
ATOM     23  H   UNL     1      50.291  49.471  17.872  1.00  0.00    +0.163 HD
BRANCH  22  24
ATOM     24  C   UNL     1      48.606  48.207  18.224  1.00  0.00    +0.088 C 
ATOM     25  C   UNL     1      48.646  47.465  16.866  1.00  0.00    +0.012 C 
ATOM     26  C   UNL     1      47.440  49.225  18.217  1.00  0.00    +0.012 C 
ATOM     27  C   UNL     1      48.783  48.462  15.697  1.00  0.00    +0.009 C 
ATOM     28  C   UNL     1      47.320  46.696  16.696  1.00  0.00    +0.009 C 
ATOM     29  C   UNL     1      46.119  48.451  18.041  1.00  0.00    +0.009 C 
ATOM     30  C   UNL     1      47.596  50.213  17.045  1.00  0.00    +0.009 C 
ATOM     31  C   UNL     1      47.609  49.455  15.707  1.00  0.00    -0.010 C 
ATOM     32  C   UNL     1      46.132  47.677  16.710  1.00  0.00    -0.010 C 
ATOM     33  C   UNL     1      46.292  48.678  15.552  1.00  0.00    +0.007 C 
ENDBRANCH  22  24
ENDBRANCH  19  20
ENDBRANCH  17  19
ENDBRANCH   3  16
TORSDOF 6
ENDMDL
MODEL 2
REMARK VINA RESULT:    -9.563      1.412      2.121
REMARK INTER + INTRA:         -14.076
REMARK INTER:                 -13.136
REMARK INTRA:                  -0.940
REMARK UNBOUND:                -1.159
REMARK SMILES C/C(CC(=O)NC1C2CC3CC(C2)CC1C3)=N\NC(=O)C(=O)Nc1ccccc1C
REMARK SMILES IDX 19 1 20 2 18 3 21 5 23 6 22 7 24 9 29 10 28 11 27 12 25 13
REMARK SMILES IDX 26 14 30 15 17 16 2 17 1 18 3 19 4 20 5 21 6 22 7 24 8 25
REMARK SMILES IDX 15 26 13 27 9 28 16 29 14 30 12 31 10 32 11 33
REMARK H PARENT 18 4 23 8 6 23
ROOT
ATOM      1  C   UNL     1      50.526  55.062  19.367  1.00  0.00    +0.329 C 
ATOM      2  O   UNL     1      51.521  54.867  18.679  1.00  0.00    -0.262 OA
ATOM      3  N   UNL     1      49.766  54.145  20.065  1.00  0.00    -0.239 N 
ATOM      4  H   UNL     1      48.982  54.501  20.608  1.00  0.00    +0.194 HD
ENDROOT
BRANCH   1   5
ATOM      5  C   UNL     1      49.989  56.496  19.519  1.00  0.00    +0.315 C 
ATOM      6  N   UNL     1      48.837  56.692  18.788  1.00  0.00    -0.317 N 
ATOM      7  O   UNL     1      50.604  57.274  20.236  1.00  0.00    -0.263 OA
ATOM      8  H   UNL     1      48.537  55.866  18.276  1.00  0.00    +0.170 HD
BRANCH   6   9
ATOM      9  C   UNL     1      48.054  57.859  18.679  1.00  0.00    +0.044 A 
ATOM     10  C   UNL     1      47.484  58.182  17.428  1.00  0.00    -0.027 A 
ATOM     11  C   UNL     1      46.698  59.342  17.308  1.00  0.00    +0.005 A 
ATOM     12  C   UNL     1      46.478  60.173  18.404  1.00  0.00    +0.000 A 
ATOM     13  C   UNL     1      47.823  58.705  19.770  1.00  0.00    +0.026 A 
ATOM     14  C   UNL     1      47.040  59.855  19.634  1.00  0.00    +0.002 A 
ATOM     15  C   UNL     1      47.687  57.327  16.206  1.00  0.00    +0.046 C 
ENDBRANCH   6   9
ENDBRANCH   1   5
BRANCH   3  16
ATOM     16  N   UNL     1      50.105  52.828  20.075  1.00  0.00    -0.182 NA
ATOM     17  C   UNL     1      50.878  52.393  21.028  1.00  0.00    +0.045 C 
ATOM     18  C   UNL     1      51.411  53.242  22.158  1.00  0.00    +0.064 C 
BRANCH  17  19
ATOM     19  C   UNL     1      51.264  50.932  20.997  1.00  0.00    +0.153 C 
BRANCH  19  20
ATOM     20  C   UNL     1      51.194  50.327  19.615  1.00  0.00    +0.225 C 
ATOM     21  O   UNL     1      52.192  50.051  18.957  1.00  0.00    -0.275 OA
ATOM     22  N   UNL     1      49.907  50.078  19.183  1.00  0.00    -0.352 N 
ATOM     23  H   UNL     1      49.147  50.199  19.839  1.00  0.00    +0.163 HD
BRANCH  22  24
ATOM     24  C   UNL     1      49.641  49.398  17.922  1.00  0.00    +0.088 C 
ATOM     25  C   UNL     1      49.163  50.377  16.823  1.00  0.00    +0.012 C 
ATOM     26  C   UNL     1      48.604  48.259  18.080  1.00  0.00    +0.012 C 
ATOM     27  C   UNL     1      47.764  50.938  17.154  1.00  0.00    +0.009 C 
ATOM     28  C   UNL     1      49.074  49.602  15.492  1.00  0.00    +0.009 C 
ATOM     29  C   UNL     1      48.516  47.493  16.745  1.00  0.00    +0.009 C 
ATOM     30  C   UNL     1      47.215  48.838  18.413  1.00  0.00    +0.009 C 
ATOM     31  C   UNL     1      46.752  49.788  17.296  1.00  0.00    -0.010 C 
ATOM     32  C   UNL     1      48.067  48.443  15.619  1.00  0.00    -0.010 C 
ATOM     33  C   UNL     1      46.682  49.014  15.969  1.00  0.00    +0.007 C 
ENDBRANCH  22  24
ENDBRANCH  19  20
ENDBRANCH  17  19
ENDBRANCH   3  16
TORSDOF 6
ENDMDL
MODEL 3
REMARK VINA RESULT:    -9.415      2.218      3.443
REMARK INTER + INTRA:         -13.876
REMARK INTER:                 -12.851
REMARK INTRA:                  -1.025
REMARK UNBOUND:                -1.159
REMARK SMILES C/C(CC(=O)NC1C2CC3CC(C2)CC1C3)=N\NC(=O)C(=O)Nc1ccccc1C
REMARK SMILES IDX 19 1 20 2 18 3 21 5 23 6 22 7 24 9 29 10 28 11 27 12 25 13
REMARK SMILES IDX 26 14 30 15 17 16 2 17 1 18 3 19 4 20 5 21 6 22 7 24 8 25
REMARK SMILES IDX 15 26 13 27 9 28 16 29 14 30 12 31 10 32 11 33
REMARK H PARENT 18 4 23 8 6 23
ROOT
ATOM      1  C   UNL     1      48.317  55.473  16.808  1.00  0.00    +0.329 C 
ATOM      2  O   UNL     1      47.960  54.667  15.957  1.00  0.00    -0.262 OA
ATOM      3  N   UNL     1      49.020  55.244  17.974  1.00  0.00    -0.239 N 
ATOM      4  H   UNL     1      49.250  56.051  18.550  1.00  0.00    +0.194 HD
ENDROOT
BRANCH   1   5
ATOM      5  C   UNL     1      47.966  56.960  16.625  1.00  0.00    +0.315 C 
ATOM      6  N   UNL     1      47.513  57.528  17.797  1.00  0.00    -0.317 N 
ATOM      7  O   UNL     1      48.118  57.461  15.519  1.00  0.00    -0.263 OA
ATOM      8  H   UNL     1      47.488  56.877  18.578  1.00  0.00    +0.170 HD
BRANCH   6   9
ATOM      9  C   UNL     1      47.106  58.857  18.028  1.00  0.00    +0.044 A 
ATOM     10  C   UNL     1      47.338  59.429  19.298  1.00  0.00    -0.027 A 
ATOM     11  C   UNL     1      46.938  60.756  19.540  1.00  0.00    +0.005 A 
ATOM     12  C   UNL     1      46.317  61.508  18.546  1.00  0.00    +0.000 A 
ATOM     13  C   UNL     1      46.481  59.627  17.040  1.00  0.00    +0.026 A 
ATOM     14  C   UNL     1      46.089  60.944  17.297  1.00  0.00    +0.002 A 
ATOM     15  C   UNL     1      48.002  58.668  20.415  1.00  0.00    +0.046 C 
ENDBRANCH   6   9
ENDBRANCH   1   5
BRANCH   3  16
ATOM     16  N   UNL     1      49.446  53.992  18.292  1.00  0.00    -0.182 NA
ATOM     17  C   UNL     1      50.038  53.809  19.437  1.00  0.00    +0.045 C 
ATOM     18  C   UNL     1      50.267  54.889  20.469  1.00  0.00    +0.064 C 
BRANCH  17  19
ATOM     19  C   UNL     1      50.530  52.414  19.750  1.00  0.00    +0.153 C 
BRANCH  19  20
ATOM     20  C   UNL     1      50.439  51.472  18.574  1.00  0.00    +0.225 C 
ATOM     21  O   UNL     1      51.407  51.176  17.881  1.00  0.00    -0.275 OA
ATOM     22  N   UNL     1      49.176  50.949  18.378  1.00  0.00    -0.352 N 
ATOM     23  H   UNL     1      48.467  51.129  19.076  1.00  0.00    +0.163 HD
BRANCH  22  24
ATOM     24  C   UNL     1      48.916  49.940  17.360  1.00  0.00    +0.088 C 
ATOM     25  C   UNL     1      47.737  50.333  16.439  1.00  0.00    +0.012 C 
ATOM     26  C   UNL     1      48.642  48.546  17.976  1.00  0.00    +0.012 C 
ATOM     27  C   UNL     1      46.403  50.319  17.214  1.00  0.00    +0.009 C 
ATOM     28  C   UNL     1      47.647  49.298  15.299  1.00  0.00    +0.009 C 
ATOM     29  C   UNL     1      48.548  47.518  16.831  1.00  0.00    +0.009 C 
ATOM     30  C   UNL     1      47.308  48.552  18.748  1.00  0.00    +0.009 C 
ATOM     31  C   UNL     1      46.149  48.923  17.807  1.00  0.00    -0.010 C 
ATOM     32  C   UNL     1      47.399  47.892  15.877  1.00  0.00    -0.010 C 
ATOM     33  C   UNL     1      46.077  47.897  16.664  1.00  0.00    +0.007 C 
ENDBRANCH  22  24
ENDBRANCH  19  20
ENDBRANCH  17  19
ENDBRANCH   3  16
TORSDOF 6
ENDMDL
MODEL 4
REMARK VINA RESULT:    -8.859      3.182      4.658
REMARK INTER + INTRA:         -13.125
REMARK INTER:                 -12.502
REMARK INTRA:                  -0.623
REMARK UNBOUND:                -1.159
REMARK SMILES C/C(CC(=O)NC1C2CC3CC(C2)CC1C3)=N\NC(=O)C(=O)Nc1ccccc1C
REMARK SMILES IDX 19 1 20 2 18 3 21 5 23 6 22 7 24 9 29 10 28 11 27 12 25 13
REMARK SMILES IDX 26 14 30 15 17 16 2 17 1 18 3 19 4 20 5 21 6 22 7 24 8 25
REMARK SMILES IDX 15 26 13 27 9 28 16 29 14 30 12 31 10 32 11 33
REMARK H PARENT 18 4 23 8 6 23
ROOT
ATOM      1  C   UNL     1      47.715  57.796  17.947  1.00  0.00    +0.329 C 
ATOM      2  O   UNL     1      47.167  57.671  16.858  1.00  0.00    -0.262 OA
ATOM      3  N   UNL     1      48.632  56.960  18.553  1.00  0.00    -0.239 N 
ATOM      4  H   UNL     1      49.001  57.246  19.458  1.00  0.00    +0.194 HD
ENDROOT
BRANCH   1   5
ATOM      5  C   UNL     1      47.385  59.023  18.815  1.00  0.00    +0.315 C 
ATOM      6  N   UNL     1      46.512  59.880  18.181  1.00  0.00    -0.317 N 
ATOM      7  O   UNL     1      47.902  59.108  19.922  1.00  0.00    -0.263 OA
ATOM      8  H   UNL     1      46.234  59.562  17.256  1.00  0.00    +0.170 HD
BRANCH   6   9
ATOM      9  C   UNL     1      45.975  61.094  18.653  1.00  0.00    +0.044 A 
ATOM     10  C   UNL     1      44.665  61.456  18.268  1.00  0.00    -0.027 A 
ATOM     11  C   UNL     1      44.118  62.664  18.734  1.00  0.00    +0.005 A 
ATOM     12  C   UNL     1      44.851  63.506  19.568  1.00  0.00    +0.000 A 
ATOM     13  C   UNL     1      46.698  61.952  19.491  1.00  0.00    +0.026 A 
ATOM     14  C   UNL     1      46.139  63.150  19.946  1.00  0.00    +0.002 A 
ATOM     15  C   UNL     1      43.824  60.591  17.367  1.00  0.00    +0.046 C 
ENDBRANCH   6   9
ENDBRANCH   1   5
BRANCH   3  16
ATOM     16  N   UNL     1      49.071  55.838  17.922  1.00  0.00    -0.182 NA
ATOM     17  C   UNL     1      48.925  54.691  18.521  1.00  0.00    +0.045 C 
ATOM     18  C   UNL     1      48.269  54.502  19.869  1.00  0.00    +0.064 C 
BRANCH  17  19
ATOM     19  C   UNL     1      49.450  53.465  17.810  1.00  0.00    +0.153 C 
BRANCH  19  20
ATOM     20  C   UNL     1      48.390  52.731  17.024  1.00  0.00    +0.225 C 
ATOM     21  O   UNL     1      47.746  53.256  16.122  1.00  0.00    -0.275 OA
ATOM     22  N   UNL     1      48.244  51.408  17.391  1.00  0.00    -0.352 N 
ATOM     23  H   UNL     1      48.909  51.012  18.042  1.00  0.00    +0.163 HD
BRANCH  22  24
ATOM     24  C   UNL     1      47.348  50.510  16.675  1.00  0.00    +0.088 C 
ATOM     25  C   UNL     1      46.499  49.646  17.638  1.00  0.00    +0.012 C 
ATOM     26  C   UNL     1      48.109  49.586  15.693  1.00  0.00    +0.012 C 
ATOM     27  C   UNL     1      47.383  48.634  18.396  1.00  0.00    +0.009 C 
ATOM     28  C   UNL     1      45.468  48.860  16.801  1.00  0.00    +0.009 C 
ATOM     29  C   UNL     1      47.074  48.799  14.864  1.00  0.00    +0.009 C 
ATOM     30  C   UNL     1      48.987  48.585  16.468  1.00  0.00    +0.009 C 
ATOM     31  C   UNL     1      48.119  47.723  17.400  1.00  0.00    -0.010 C 
ATOM     32  C   UNL     1      46.191  47.945  15.793  1.00  0.00    -0.010 C 
ATOM     33  C   UNL     1      47.084  46.956  16.561  1.00  0.00    +0.007 C 
ENDBRANCH  22  24
ENDBRANCH  19  20
ENDBRANCH  17  19
ENDBRANCH   3  16
TORSDOF 6
ENDMDL
MODEL 5
REMARK VINA RESULT:    -8.138      2.882      4.417
REMARK INTER + INTRA:         -12.152
REMARK INTER:                 -11.596
REMARK INTRA:                  -0.556
REMARK UNBOUND:                -1.159
REMARK SMILES C/C(CC(=O)NC1C2CC3CC(C2)CC1C3)=N\NC(=O)C(=O)Nc1ccccc1C
REMARK SMILES IDX 19 1 20 2 18 3 21 5 23 6 22 7 24 9 29 10 28 11 27 12 25 13
REMARK SMILES IDX 26 14 30 15 17 16 2 17 1 18 3 19 4 20 5 21 6 22 7 24 8 25
REMARK SMILES IDX 15 26 13 27 9 28 16 29 14 30 12 31 10 32 11 33
REMARK H PARENT 18 4 23 8 6 23
ROOT
ATOM      1  C   UNL     1      51.329  51.157  18.721  1.00  0.00    +0.329 C 
ATOM      2  O   UNL     1      52.222  50.342  18.925  1.00  0.00    -0.262 OA
ATOM      3  N   UNL     1      50.073  50.945  18.188  1.00  0.00    -0.239 N 
ATOM      4  H   UNL     1      49.452  51.748  18.118  1.00  0.00    +0.194 HD
ENDROOT
BRANCH   1   5
ATOM      5  C   UNL     1      51.567  52.635  19.078  1.00  0.00    +0.315 C 
ATOM      6  N   UNL     1      50.798  53.033  20.150  1.00  0.00    -0.317 N 
ATOM      7  O   UNL     1      52.372  53.271  18.412  1.00  0.00    -0.263 OA
ATOM      8  H   UNL     1      50.209  52.292  20.522  1.00  0.00    +0.170 HD
BRANCH   6   9
ATOM      9  C   UNL     1      50.742  54.297  20.770  1.00  0.00    +0.044 A 
ATOM     10  C   UNL     1      49.681  55.170  20.444  1.00  0.00    -0.027 A 
ATOM     11  C   UNL     1      49.614  56.433  21.058  1.00  0.00    +0.005 A 
ATOM     12  C   UNL     1      50.580  56.833  21.979  1.00  0.00    +0.000 A 
ATOM     13  C   UNL     1      51.704  54.714  21.697  1.00  0.00    +0.026 A 
ATOM     14  C   UNL     1      51.624  55.974  22.298  1.00  0.00    +0.002 A 
ATOM     15  C   UNL     1      48.608  54.798  19.455  1.00  0.00    +0.046 C 
ENDBRANCH   6   9
ENDBRANCH   1   5
BRANCH   3  16
ATOM     16  N   UNL     1      49.669  49.694  17.840  1.00  0.00    -0.182 NA
ATOM     17  C   UNL     1      48.451  49.531  17.411  1.00  0.00    +0.045 C 
ATOM     18  C   UNL     1      47.445  50.644  17.237  1.00  0.00    +0.064 C 
BRANCH  17  19
ATOM     19  C   UNL     1      48.020  48.125  17.062  1.00  0.00    +0.153 C 
BRANCH  19  20
ATOM     20  C   UNL     1      46.550  48.016  16.734  1.00  0.00    +0.225 C 
ATOM     21  O   UNL     1      45.669  48.111  17.582  1.00  0.00    -0.275 OA
ATOM     22  N   UNL     1      46.293  47.841  15.389  1.00  0.00    -0.352 N 
ATOM     23  H   UNL     1      47.063  47.918  14.737  1.00  0.00    +0.163 HD
BRANCH  22  24
ATOM     24  C   UNL     1      44.933  47.824  14.866  1.00  0.00    +0.088 C 
ATOM     25  C   UNL     1      44.244  46.456  15.084  1.00  0.00    +0.012 C 
ATOM     26  C   UNL     1      44.881  48.191  13.362  1.00  0.00    +0.012 C 
ATOM     27  C   UNL     1      44.904  45.361  14.219  1.00  0.00    +0.009 C 
ATOM     28  C   UNL     1      42.767  46.586  14.658  1.00  0.00    +0.009 C 
ATOM     29  C   UNL     1      43.402  48.313  12.943  1.00  0.00    +0.009 C 
ATOM     30  C   UNL     1      45.547  47.088  12.516  1.00  0.00    +0.009 C 
ATOM     31  C   UNL     1      44.830  45.744  12.732  1.00  0.00    -0.010 C 
ATOM     32  C   UNL     1      42.675  46.975  13.170  1.00  0.00    -0.010 C 
ATOM     33  C   UNL     1      43.355  45.886  12.322  1.00  0.00    +0.007 C 
ENDBRANCH  22  24
ENDBRANCH  19  20
ENDBRANCH  17  19
ENDBRANCH   3  16
TORSDOF 6
ENDMDL
