MODEL 1
REMARK VINA RESULT:    -7.410      0.000      0.000
REMARK INTER + INTRA:         -12.671
REMARK INTER:                 -11.308
REMARK INTRA:                  -1.362
REMARK UNBOUND:                -1.362
REMARK SMILES O=C(NCCCCCCNC(=O)C1CCCC1)C1CCCC1
REMARK SMILES IDX 6 1 5 2 4 3 3 4 2 5 1 6 18 8 20 9 21 10 19 11 22 12 7 13
REMARK SMILES IDX 8 14 9 15 10 16 11 17 12 18 13 20 14 21 17 22 15 23 16 24
REMARK H PARENT 3 7 10 19
ROOT
ATOM      1  C   UNL     1      52.286  51.074  20.586  1.00  0.00    +0.002 C 
ENDROOT
BRANCH   1   2
ATOM      2  C   UNL     1      52.038  50.390  19.242  1.00  0.00    +0.021 C 
BRANCH   2   3
ATOM      3  C   UNL     1      52.057  51.398  18.094  1.00  0.00    +0.116 C 
BRANCH   3   4
ATOM      4  N   UNL     1      50.845  51.330  17.304  1.00  0.00    -0.356 N 
ATOM      5  C   UNL     1      49.773  52.169  17.537  1.00  0.00    +0.223 C 
ATOM      6  O   UNL     1      49.759  53.001  18.437  1.00  0.00    -0.275 OA
ATOM      7  H   UNL     1      50.837  50.736  16.485  1.00  0.00    +0.163 HD
BRANCH   5   8
ATOM      8  C   UNL     1      48.622  51.957  16.558  1.00  0.00    +0.078 C 
ATOM      9  C   UNL     1      47.583  49.849  15.875  1.00  0.00    +0.001 C 
ATOM     10  C   UNL     1      47.048  50.251  17.238  1.00  0.00    +0.001 C 
ATOM     11  C   UNL     1      48.842  50.692  15.710  1.00  0.00    +0.013 C 
ATOM     12  C   UNL     1      47.271  51.756  17.256  1.00  0.00    +0.013 C 
ENDBRANCH   5   8
ENDBRANCH   3   4
ENDBRANCH   2   3
ENDBRANCH   1   2
BRANCH   1  13
ATOM     13  C   UNL     1      50.992  51.203  21.391  1.00  0.00    +0.002 C 
BRANCH  13  14
ATOM     14  C   UNL     1      50.755  52.649  21.836  1.00  0.00    +0.021 C 
BRANCH  14  15
ATOM     15  C   UNL     1      51.803  53.612  21.276  1.00  0.00    +0.116 C 
BRANCH  15  16
ATOM     16  N   UNL     1      51.217  54.826  20.749  1.00  0.00    -0.356 N 
ATOM     17  C   UNL     1      51.060  55.955  21.529  1.00  0.00    +0.223 C 
ATOM     18  O   UNL     1      51.457  56.029  22.686  1.00  0.00    -0.275 OA
ATOM     19  H   UNL     1      50.760  54.789  19.847  1.00  0.00    +0.163 HD
BRANCH  17  20
ATOM     20  C   UNL     1      50.341  57.089  20.803  1.00  0.00    +0.078 C 
ATOM     21  C   UNL     1      49.355  57.808  21.740  1.00  0.00    +0.013 C 
ATOM     22  C   UNL     1      49.501  56.603  19.614  1.00  0.00    +0.013 C 
ATOM     23  C   UNL     1      48.009  57.794  21.026  1.00  0.00    +0.001 C 
ATOM     24  C   UNL     1      48.075  56.563  20.140  1.00  0.00    +0.001 C 
ENDBRANCH  17  20
ENDBRANCH  15  16
ENDBRANCH  14  15
ENDBRANCH  13  14
ENDBRANCH   1  13
TORSDOF 9
ENDMDL
MODEL 2
REMARK VINA RESULT:    -7.132      2.067      2.484
REMARK INTER + INTRA:         -12.248
REMARK INTER:                 -11.549
REMARK INTRA:                  -0.698
REMARK UNBOUND:                -1.362
REMARK SMILES O=C(NCCCCCCNC(=O)C1CCCC1)C1CCCC1
REMARK SMILES IDX 6 1 5 2 4 3 3 4 2 5 1 6 18 8 20 9 21 10 19 11 22 12 7 13
REMARK SMILES IDX 8 14 9 15 10 16 11 17 12 18 13 20 14 21 17 22 15 23 16 24
REMARK H PARENT 3 7 10 19
ROOT
ATOM      1  C   UNL     1      50.151  51.416  19.367  1.00  0.00    +0.002 C 
ENDROOT
BRANCH   1   2
ATOM      2  C   UNL     1      50.763  50.017  19.291  1.00  0.00    +0.021 C 
BRANCH   2   3
ATOM      3  C   UNL     1      49.681  48.940  19.236  1.00  0.00    +0.116 C 
BRANCH   3   4
ATOM      4  N   UNL     1      48.582  49.331  18.378  1.00  0.00    -0.356 N 
ATOM      5  C   UNL     1      48.178  48.554  17.310  1.00  0.00    +0.223 C 
ATOM      6  O   UNL     1      48.733  47.507  16.997  1.00  0.00    -0.275 OA
ATOM      7  H   UNL     1      48.022  50.130  18.646  1.00  0.00    +0.163 HD
BRANCH   5   8
ATOM      8  C   UNL     1      46.974  49.131  16.571  1.00  0.00    +0.078 C 
ATOM      9  C   UNL     1      44.868  48.021  16.007  1.00  0.00    +0.001 C 
ATOM     10  C   UNL     1      44.838  48.437  17.467  1.00  0.00    +0.001 C 
ATOM     11  C   UNL     1      46.344  48.084  15.636  1.00  0.00    +0.013 C 
ATOM     12  C   UNL     1      45.848  49.573  17.514  1.00  0.00    +0.013 C 
ENDBRANCH   5   8
ENDBRANCH   3   4
ENDBRANCH   2   3
ENDBRANCH   1   2
BRANCH   1  13
ATOM     13  C   UNL     1      51.152  52.430  19.922  1.00  0.00    +0.002 C 
BRANCH  13  14
ATOM     14  C   UNL     1      51.305  52.290  21.439  1.00  0.00    +0.021 C 
BRANCH  14  15
ATOM     15  C   UNL     1      51.581  53.629  22.125  1.00  0.00    +0.116 C 
BRANCH  15  16
ATOM     16  N   UNL     1      51.067  54.754  21.371  1.00  0.00    -0.356 N 
ATOM     17  C   UNL     1      51.069  56.034  21.887  1.00  0.00    +0.223 C 
ATOM     18  O   UNL     1      51.553  56.317  22.976  1.00  0.00    -0.275 OA
ATOM     19  H   UNL     1      50.545  54.568  20.525  1.00  0.00    +0.163 HD
BRANCH  17  20
ATOM     20  C   UNL     1      50.402  57.052  20.964  1.00  0.00    +0.078 C 
ATOM     21  C   UNL     1      49.351  57.881  21.721  1.00  0.00    +0.013 C 
ATOM     22  C   UNL     1      49.651  56.400  19.795  1.00  0.00    +0.013 C 
ATOM     23  C   UNL     1      48.059  57.755  20.922  1.00  0.00    +0.001 C 
ATOM     24  C   UNL     1      48.191  56.416  20.220  1.00  0.00    +0.001 C 
ENDBRANCH  17  20
ENDBRANCH  15  16
ENDBRANCH  14  15
ENDBRANCH  13  14
ENDBRANCH   1  13
TORSDOF 9
ENDMDL
MODEL 3
REMARK VINA RESULT:    -7.052      1.522      2.040
REMARK INTER + INTRA:         -12.125
REMARK INTER:                 -11.332
REMARK INTRA:                  -0.793
REMARK UNBOUND:                -1.362
REMARK SMILES O=C(NCCCCCCNC(=O)C1CCCC1)C1CCCC1
REMARK SMILES IDX 6 1 5 2 4 3 3 4 2 5 1 6 18 8 20 9 21 10 19 11 22 12 7 13
REMARK SMILES IDX 8 14 9 15 10 16 11 17 12 18 13 20 14 21 17 22 15 23 16 24
REMARK H PARENT 3 7 10 19
ROOT
ATOM      1  C   UNL     1      51.915  50.523  21.034  1.00  0.00    +0.002 C 
ENDROOT
BRANCH   1   2
ATOM      2  C   UNL     1      50.654  49.662  21.108  1.00  0.00    +0.021 C 
BRANCH   2   3
ATOM      3  C   UNL     1      50.569  48.699  19.926  1.00  0.00    +0.116 C 
BRANCH   3   4
ATOM      4  N   UNL     1      50.084  49.360  18.733  1.00  0.00    -0.356 N 
ATOM      5  C   UNL     1      48.742  49.383  18.405  1.00  0.00    +0.223 C 
ATOM      6  O   UNL     1      47.880  48.827  19.076  1.00  0.00    -0.275 OA
ATOM      7  H   UNL     1      50.731  49.921  18.196  1.00  0.00    +0.163 HD
BRANCH   5   8
ATOM      8  C   UNL     1      48.450  50.173  17.133  1.00  0.00    +0.078 C 
ATOM      9  C   UNL     1      47.364  52.355  16.920  1.00  0.00    +0.001 C 
ATOM     10  C   UNL     1      48.808  52.555  17.343  1.00  0.00    +0.001 C 
ATOM     11  C   UNL     1      47.090  50.887  17.224  1.00  0.00    +0.013 C 
ATOM     12  C   UNL     1      49.480  51.278  16.863  1.00  0.00    +0.013 C 
ENDBRANCH   5   8
ENDBRANCH   3   4
ENDBRANCH   2   3
ENDBRANCH   1   2
BRANCH   1  13
ATOM     13  C   UNL     1      51.596  51.936  20.544  1.00  0.00    +0.002 C 
BRANCH  13  14
ATOM     14  C   UNL     1      50.756  52.704  21.569  1.00  0.00    +0.021 C 
BRANCH  14  15
ATOM     15  C   UNL     1      51.376  54.052  21.938  1.00  0.00    +0.116 C 
BRANCH  15  16
ATOM     16  N   UNL     1      50.735  55.161  21.262  1.00  0.00    -0.356 N 
ATOM     17  C   UNL     1      50.986  56.471  21.618  1.00  0.00    +0.223 C 
ATOM     18  O   UNL     1      51.800  56.788  22.476  1.00  0.00    -0.275 OA
ATOM     19  H   UNL     1      49.966  54.963  20.636  1.00  0.00    +0.163 HD
BRANCH  17  20
ATOM     20  C   UNL     1      50.140  57.475  20.838  1.00  0.00    +0.078 C 
ATOM     21  C   UNL     1      49.008  58.042  21.712  1.00  0.00    +0.013 C 
ATOM     22  C   UNL     1      49.448  56.856  19.616  1.00  0.00    +0.013 C 
ATOM     23  C   UNL     1      47.719  57.815  20.931  1.00  0.00    +0.001 C 
ATOM     24  C   UNL     1      48.019  56.602  20.070  1.00  0.00    +0.001 C 
ENDBRANCH  17  20
ENDBRANCH  15  16
ENDBRANCH  14  15
ENDBRANCH  13  14
ENDBRANCH   1  13
TORSDOF 9
ENDMDL
MODEL 4
REMARK VINA RESULT:    -6.992      1.891      7.419
REMARK INTER + INTRA:         -12.033
REMARK INTER:                 -11.249
REMARK INTRA:                  -0.784
REMARK UNBOUND:                -1.362
REMARK SMILES O=C(NCCCCCCNC(=O)C1CCCC1)C1CCCC1
REMARK SMILES IDX 6 1 5 2 4 3 3 4 2 5 1 6 18 8 20 9 21 10 19 11 22 12 7 13
REMARK SMILES IDX 8 14 9 15 10 16 11 17 12 18 13 20 14 21 17 22 15 23 16 24
REMARK H PARENT 3 7 10 19
ROOT
ATOM      1  C   UNL     1      51.391  51.936  19.875  1.00  0.00    +0.002 C 
ENDROOT
BRANCH   1   2
ATOM      2  C   UNL     1      52.006  51.883  21.274  1.00  0.00    +0.021 C 
BRANCH   2   3
ATOM      3  C   UNL     1      51.401  52.947  22.187  1.00  0.00    +0.116 C 
BRANCH   3   4
ATOM      4  N   UNL     1      50.883  54.068  21.430  1.00  0.00    -0.356 N 
ATOM      5  C   UNL     1      51.297  55.364  21.670  1.00  0.00    +0.223 C 
ATOM      6  O   UNL     1      52.100  55.658  22.548  1.00  0.00    -0.275 OA
ATOM      7  H   UNL     1      50.298  53.879  20.627  1.00  0.00    +0.163 HD
BRANCH   5   8
ATOM      8  C   UNL     1      50.660  56.381  20.727  1.00  0.00    +0.078 C 
ATOM      9  C   UNL     1      48.357  57.208  20.723  1.00  0.00    +0.001 C 
ATOM     10  C   UNL     1      49.142  57.919  21.811  1.00  0.00    +0.001 C 
ATOM     11  C   UNL     1      49.210  55.990  20.389  1.00  0.00    +0.013 C 
ATOM     12  C   UNL     1      50.579  57.789  21.330  1.00  0.00    +0.013 C 
ENDBRANCH   5   8
ENDBRANCH   3   4
ENDBRANCH   2   3
ENDBRANCH   1   2
BRANCH   1  13
ATOM     13  C   UNL     1      51.774  50.705  19.053  1.00  0.00    +0.002 C 
BRANCH  13  14
ATOM     14  C   UNL     1      51.596  49.417  19.863  1.00  0.00    +0.021 C 
BRANCH  14  15
ATOM     15  C   UNL     1      50.140  48.950  19.906  1.00  0.00    +0.116 C 
BRANCH  15  16
ATOM     16  N   UNL     1      49.730  48.300  18.678  1.00  0.00    -0.356 N 
ATOM     17  C   UNL     1      48.746  48.831  17.869  1.00  0.00    +0.223 C 
ATOM     18  O   UNL     1      48.200  49.905  18.095  1.00  0.00    -0.275 OA
ATOM     19  H   UNL     1      50.051  47.357  18.503  1.00  0.00    +0.163 HD
BRANCH  17  20
ATOM     20  C   UNL     1      48.408  47.941  16.675  1.00  0.00    +0.078 C 
ATOM     21  C   UNL     1      48.504  48.726  15.356  1.00  0.00    +0.013 C 
ATOM     22  C   UNL     1      46.977  47.389  16.725  1.00  0.00    +0.013 C 
ATOM     23  C   UNL     1      47.167  48.527  14.650  1.00  0.00    +0.001 C 
ATOM     24  C   UNL     1      46.187  48.282  15.781  1.00  0.00    +0.001 C 
ENDBRANCH  17  20
ENDBRANCH  15  16
ENDBRANCH  14  15
ENDBRANCH  13  14
ENDBRANCH   1  13
TORSDOF 9
ENDMDL
MODEL 5
REMARK VINA RESULT:    -6.902      1.786      2.492
REMARK INTER + INTRA:         -11.896
REMARK INTER:                 -11.157
REMARK INTRA:                  -0.739
REMARK UNBOUND:                -1.362
REMARK SMILES O=C(NCCCCCCNC(=O)C1CCCC1)C1CCCC1
REMARK SMILES IDX 6 1 5 2 4 3 3 4 2 5 1 6 18 8 20 9 21 10 19 11 22 12 7 13
REMARK SMILES IDX 8 14 9 15 10 16 11 17 12 18 13 20 14 21 17 22 15 23 16 24
REMARK H PARENT 3 7 10 19
ROOT
ATOM      1  C   UNL     1      51.983  52.246  20.171  1.00  0.00    +0.002 C 
ENDROOT
BRANCH   1   2
ATOM      2  C   UNL     1      51.278  52.276  18.815  1.00  0.00    +0.021 C 
BRANCH   2   3
ATOM      3  C   UNL     1      51.558  51.005  18.015  1.00  0.00    +0.116 C 
BRANCH   3   4
ATOM      4  N   UNL     1      50.634  49.944  18.358  1.00  0.00    -0.356 N 
ATOM      5  C   UNL     1      49.418  49.801  17.719  1.00  0.00    +0.223 C 
ATOM      6  O   UNL     1      49.025  50.570  16.849  1.00  0.00    -0.275 OA
ATOM      7  H   UNL     1      50.944  49.221  18.993  1.00  0.00    +0.163 HD
BRANCH   5   8
ATOM      8  C   UNL     1      48.625  48.591  18.203  1.00  0.00    +0.078 C 
ATOM      9  C   UNL     1      46.343  47.937  17.609  1.00  0.00    +0.001 C 
ATOM     10  C   UNL     1      47.286  47.534  16.489  1.00  0.00    +0.001 C 
ATOM     11  C   UNL     1      47.144  48.948  18.420  1.00  0.00    +0.013 C 
ATOM     12  C   UNL     1      48.627  47.431  17.199  1.00  0.00    +0.013 C 
ENDBRANCH   5   8
ENDBRANCH   3   4
ENDBRANCH   2   3
ENDBRANCH   1   2
BRANCH   1  13
ATOM     13  C   UNL     1      51.012  52.564  21.309  1.00  0.00    +0.002 C 
BRANCH  13  14
ATOM     14  C   UNL     1      51.554  53.679  22.208  1.00  0.00    +0.021 C 
BRANCH  14  15
ATOM     15  C   UNL     1      51.591  55.034  21.500  1.00  0.00    +0.116 C 
BRANCH  15  16
ATOM     16  N   UNL     1      50.344  55.346  20.834  1.00  0.00    -0.356 N 
ATOM     17  C   UNL     1      49.636  56.497  21.119  1.00  0.00    +0.223 C 
ATOM     18  O   UNL     1      50.036  57.353  21.897  1.00  0.00    -0.275 OA
ATOM     19  H   UNL     1      49.901  54.625  20.278  1.00  0.00    +0.163 HD
BRANCH  17  20
ATOM     20  C   UNL     1      48.308  56.583  20.370  1.00  0.00    +0.078 C 
ATOM     21  C   UNL     1      48.528  56.551  18.848  1.00  0.00    +0.013 C 
ATOM     22  C   UNL     1      47.545  57.885  20.650  1.00  0.00    +0.013 C 
ATOM     23  C   UNL     1      47.813  57.778  18.293  1.00  0.00    +0.001 C 
ATOM     24  C   UNL     1      47.831  58.766  19.444  1.00  0.00    +0.001 C 
ENDBRANCH  17  20
ENDBRANCH  15  16
ENDBRANCH  14  15
ENDBRANCH  13  14
ENDBRANCH   1  13
TORSDOF 9
ENDMDL
