MODEL 1
REMARK VINA RESULT:    -9.166      0.000      0.000
REMARK INTER + INTRA:         -12.237
REMARK INTER:                 -11.845
REMARK INTRA:                  -0.392
REMARK UNBOUND:                -0.392
REMARK SMILES O=C(/C=C/c1ccc2c(c1)OCO2)NC(=S)NNC(=O)[C@H]1C[C@@H]1c1ccccc1
REMARK SMILES IDX 17 1 15 2 16 3 14 4 2 5 1 6 18 9 19 10 20 11 21 13 23 14
REMARK SMILES IDX 22 15 24 16 27 17 26 18 28 19 25 20 29 21 3 22 4 23 5 24
REMARK SMILES IDX 6 25 10 26 7 27 9 28 8 29 11 30 13 31 12 32
REMARK H PARENT 17 7 14 8 18 12
ROOT
ATOM      1  N   UNL     1      48.104  50.513  16.922  1.00  0.00    -0.274 N 
ATOM      2  C   UNL     1      48.910  50.388  18.028  1.00  0.00    +0.192 C 
ATOM      3  S   UNL     1      49.251  48.947  18.813  1.00  0.00    -0.039 S 
ATOM      4  N   UNL     1      49.511  51.537  18.486  1.00  0.00    -0.298 N 
ATOM      5  C   UNL     1      49.370  52.819  17.995  1.00  0.00    +0.250 C 
ATOM      6  O   UNL     1      48.599  53.147  17.100  1.00  0.00    -0.270 OA
ATOM      7  H   UNL     1      47.767  51.454  16.676  1.00  0.00    +0.190 HD
ATOM      8  H   UNL     1      50.094  51.398  19.299  1.00  0.00    +0.172 HD
ENDROOT
BRANCH   1   9
ATOM      9  N   UNL     1      47.253  49.460  16.541  1.00  0.00    -0.268 N 
ATOM     10  C   UNL     1      47.650  48.658  15.489  1.00  0.00    +0.242 C 
ATOM     11  O   UNL     1      48.775  48.688  15.002  1.00  0.00    -0.273 OA
ATOM     12  H   UNL     1      46.273  49.570  16.778  1.00  0.00    +0.191 HD
BRANCH  10  13
ATOM     13  C   UNL     1      46.633  47.724  14.933  1.00  0.00    +0.088 C 
ATOM     14  C   UNL     1      45.668  48.196  13.859  1.00  0.00    +0.032 C 
ATOM     15  C   UNL     1      45.153  47.809  15.224  1.00  0.00    +0.023 C 
BRANCH  14  16
ATOM     16  C   UNL     1      45.393  47.341  12.632  1.00  0.00    -0.044 A 
ATOM     17  C   UNL     1      44.920  45.823  10.283  1.00  0.00    +0.000 A 
ATOM     18  C   UNL     1      45.455  47.102  10.192  1.00  0.00    +0.000 A 
ATOM     19  C   UNL     1      44.620  45.292  11.532  1.00  0.00    +0.000 A 
ATOM     20  C   UNL     1      45.687  47.847  11.352  1.00  0.00    +0.004 A 
ATOM     21  C   UNL     1      44.854  46.043  12.688  1.00  0.00    +0.004 A 
ENDBRANCH  14  16
ENDBRANCH  10  13
ENDBRANCH   1   9
BRANCH   5  22
ATOM     22  C   UNL     1      50.175  53.852  18.692  1.00  0.00    +0.072 C 
ATOM     23  C   UNL     1      49.663  54.718  19.580  1.00  0.00    +0.014 C 
BRANCH  23  24
ATOM     24  C   UNL     1      50.472  55.720  20.290  1.00  0.00    -0.022 A 
ATOM     25  C   UNL     1      49.891  56.675  21.155  1.00  0.00    +0.012 A 
ATOM     26  C   UNL     1      51.854  55.755  20.054  1.00  0.00    +0.058 A 
ATOM     27  C   UNL     1      50.676  57.638  21.800  1.00  0.00    +0.051 A 
ATOM     28  C   UNL     1      52.604  56.715  20.704  1.00  0.00    +0.166 A 
ATOM     29  C   UNL     1      52.031  57.629  21.555  1.00  0.00    +0.165 A 
ATOM     30  O   UNL     1      53.949  56.880  20.594  1.00  0.00    -0.454 OA
ATOM     31  O   UNL     1      52.942  58.484  22.088  1.00  0.00    -0.454 OA
ATOM     32  C   UNL     1      54.158  58.004  21.478  1.00  0.00    +0.468 C 
ENDBRANCH  23  24
ENDBRANCH   5  22
TORSDOF 5
ENDMDL
MODEL 2
REMARK VINA RESULT:    -9.128      5.124      6.801
REMARK INTER + INTRA:         -12.188
REMARK INTER:                 -11.793
REMARK INTRA:                  -0.395
REMARK UNBOUND:                -0.392
REMARK SMILES O=C(/C=C/c1ccc2c(c1)OCO2)NC(=S)NNC(=O)[C@H]1C[C@@H]1c1ccccc1
REMARK SMILES IDX 17 1 15 2 16 3 14 4 2 5 1 6 18 9 19 10 20 11 21 13 23 14
REMARK SMILES IDX 22 15 24 16 27 17 26 18 28 19 25 20 29 21 3 22 4 23 5 24
REMARK SMILES IDX 6 25 10 26 7 27 9 28 8 29 11 30 13 31 12 32
REMARK H PARENT 17 7 14 8 18 12
ROOT
ATOM      1  N   UNL     1      49.530  54.458  18.064  1.00  0.00    -0.274 N 
ATOM      2  C   UNL     1      49.480  55.031  19.312  1.00  0.00    +0.192 C 
ATOM      3  S   UNL     1      50.131  54.361  20.705  1.00  0.00    -0.039 S 
ATOM      4  N   UNL     1      48.887  56.268  19.401  1.00  0.00    -0.298 N 
ATOM      5  C   UNL     1      48.291  56.994  18.389  1.00  0.00    +0.250 C 
ATOM      6  O   UNL     1      48.125  56.594  17.243  1.00  0.00    -0.270 OA
ATOM      7  H   UNL     1      48.896  54.824  17.341  1.00  0.00    +0.190 HD
ATOM      8  H   UNL     1      48.873  56.650  20.336  1.00  0.00    +0.172 HD
ENDROOT
BRANCH   1   9
ATOM      9  N   UNL     1      49.879  53.103  17.918  1.00  0.00    -0.268 N 
ATOM     10  C   UNL     1      49.047  52.301  17.161  1.00  0.00    +0.242 C 
ATOM     11  O   UNL     1      48.142  52.738  16.458  1.00  0.00    -0.273 OA
ATOM     12  H   UNL     1      50.466  52.712  18.646  1.00  0.00    +0.191 HD
BRANCH  10  13
ATOM     13  C   UNL     1      49.280  50.833  17.230  1.00  0.00    +0.088 C 
ATOM     14  C   UNL     1      48.399  49.959  18.107  1.00  0.00    +0.032 C 
ATOM     15  C   UNL     1      49.866  50.122  18.428  1.00  0.00    +0.023 C 
BRANCH  14  16
ATOM     16  C   UNL     1      47.840  48.647  17.582  1.00  0.00    -0.044 A 
ATOM     17  C   UNL     1      46.699  46.233  16.622  1.00  0.00    +0.000 A 
ATOM     18  C   UNL     1      45.884  47.236  17.134  1.00  0.00    +0.000 A 
ATOM     19  C   UNL     1      48.076  46.421  16.582  1.00  0.00    +0.000 A 
ATOM     20  C   UNL     1      46.451  48.424  17.606  1.00  0.00    +0.004 A 
ATOM     21  C   UNL     1      48.635  47.612  17.057  1.00  0.00    +0.004 A 
ENDBRANCH  14  16
ENDBRANCH  10  13
ENDBRANCH   1   9
BRANCH   5  22
ATOM     22  C   UNL     1      47.758  58.318  18.795  1.00  0.00    +0.072 C 
ATOM     23  C   UNL     1      47.042  59.110  17.983  1.00  0.00    +0.014 C 
BRANCH  23  24
ATOM     24  C   UNL     1      46.491  60.408  18.401  1.00  0.00    -0.022 A 
ATOM     25  C   UNL     1      47.140  61.225  19.355  1.00  0.00    +0.012 A 
ATOM     26  C   UNL     1      45.258  60.816  17.872  1.00  0.00    +0.058 A 
ATOM     27  C   UNL     1      46.585  62.444  19.761  1.00  0.00    +0.051 A 
ATOM     28  C   UNL     1      44.734  62.023  18.288  1.00  0.00    +0.166 A 
ATOM     29  C   UNL     1      45.381  62.816  19.205  1.00  0.00    +0.165 A 
ATOM     30  O   UNL     1      43.560  62.566  17.869  1.00  0.00    -0.454 OA
ATOM     31  O   UNL     1      44.697  63.957  19.479  1.00  0.00    -0.454 OA
ATOM     32  C   UNL     1      43.544  63.795  18.627  1.00  0.00    +0.468 C 
ENDBRANCH  23  24
ENDBRANCH   5  22
TORSDOF 5
ENDMDL
MODEL 3
REMARK VINA RESULT:    -9.110      6.901     10.175
REMARK INTER + INTRA:         -12.164
REMARK INTER:                 -11.705
REMARK INTRA:                  -0.459
REMARK UNBOUND:                -0.392
REMARK SMILES O=C(/C=C/c1ccc2c(c1)OCO2)NC(=S)NNC(=O)[C@H]1C[C@@H]1c1ccccc1
REMARK SMILES IDX 17 1 15 2 16 3 14 4 2 5 1 6 18 9 19 10 20 11 21 13 23 14
REMARK SMILES IDX 22 15 24 16 27 17 26 18 28 19 25 20 29 21 3 22 4 23 5 24
REMARK SMILES IDX 6 25 10 26 7 27 9 28 8 29 11 30 13 31 12 32
REMARK H PARENT 17 7 14 8 18 12
ROOT
ATOM      1  N   UNL     1      48.349  56.964  19.480  1.00  0.00    -0.274 N 
ATOM      2  C   UNL     1      48.066  57.338  18.188  1.00  0.00    +0.192 C 
ATOM      3  S   UNL     1      48.296  56.375  16.835  1.00  0.00    -0.039 S 
ATOM      4  N   UNL     1      47.511  58.584  18.014  1.00  0.00    -0.298 N 
ATOM      5  C   UNL     1      47.240  59.532  18.980  1.00  0.00    +0.250 C 
ATOM      6  O   UNL     1      47.540  59.432  20.165  1.00  0.00    -0.270 OA
ATOM      7  H   UNL     1      48.406  57.704  20.193  1.00  0.00    +0.190 HD
ATOM      8  H   UNL     1      47.320  58.816  17.050  1.00  0.00    +0.172 HD
ENDROOT
BRANCH   1   9
ATOM      9  N   UNL     1      49.146  55.832  19.733  1.00  0.00    -0.268 N 
ATOM     10  C   UNL     1      49.991  55.869  20.825  1.00  0.00    +0.242 C 
ATOM     11  O   UNL     1      49.946  56.741  21.686  1.00  0.00    -0.273 OA
ATOM     12  H   UNL     1      49.342  55.238  18.936  1.00  0.00    +0.191 HD
BRANCH  10  13
ATOM     13  C   UNL     1      51.006  54.785  20.928  1.00  0.00    +0.088 C 
ATOM     14  C   UNL     1      50.594  53.394  21.380  1.00  0.00    +0.032 C 
ATOM     15  C   UNL     1      51.520  54.227  22.235  1.00  0.00    +0.023 C 
BRANCH  14  16
ATOM     16  C   UNL     1      51.088  52.161  20.640  1.00  0.00    -0.044 A 
ATOM     17  C   UNL     1      51.929  49.872  19.190  1.00  0.00    +0.000 A 
ATOM     18  C   UNL     1      50.794  50.571  18.796  1.00  0.00    +0.000 A 
ATOM     19  C   UNL     1      52.650  50.303  20.298  1.00  0.00    +0.000 A 
ATOM     20  C   UNL     1      50.384  51.699  19.513  1.00  0.00    +0.004 A 
ATOM     21  C   UNL     1      52.232  51.431  21.011  1.00  0.00    +0.004 A 
ENDBRANCH  14  16
ENDBRANCH  10  13
ENDBRANCH   1   9
BRANCH   5  22
ATOM     22  C   UNL     1      46.612  60.779  18.480  1.00  0.00    +0.072 C 
ATOM     23  C   UNL     1      47.111  62.004  18.705  1.00  0.00    +0.014 C 
BRANCH  23  24
ATOM     24  C   UNL     1      46.499  63.234  18.181  1.00  0.00    -0.022 A 
ATOM     25  C   UNL     1      47.216  64.138  17.364  1.00  0.00    +0.012 A 
ATOM     26  C   UNL     1      45.180  63.537  18.550  1.00  0.00    +0.058 A 
ATOM     27  C   UNL     1      46.624  65.317  16.898  1.00  0.00    +0.051 A 
ATOM     28  C   UNL     1      44.621  64.706  18.074  1.00  0.00    +0.166 A 
ATOM     29  C   UNL     1      45.322  65.570  17.269  1.00  0.00    +0.165 A 
ATOM     30  O   UNL     1      43.358  65.143  18.328  1.00  0.00    -0.454 OA
ATOM     31  O   UNL     1      44.591  66.659  16.914  1.00  0.00    -0.454 OA
ATOM     32  C   UNL     1      43.345  66.382  17.586  1.00  0.00    +0.468 C 
ENDBRANCH  23  24
ENDBRANCH   5  22
TORSDOF 5
ENDMDL
MODEL 4
REMARK VINA RESULT:    -9.007      5.058     12.071
REMARK INTER + INTRA:         -12.032
REMARK INTER:                 -11.611
REMARK INTRA:                  -0.421
REMARK UNBOUND:                -0.392
REMARK SMILES O=C(/C=C/c1ccc2c(c1)OCO2)NC(=S)NNC(=O)[C@H]1C[C@@H]1c1ccccc1
REMARK SMILES IDX 17 1 15 2 16 3 14 4 2 5 1 6 18 9 19 10 20 11 21 13 23 14
REMARK SMILES IDX 22 15 24 16 27 17 26 18 28 19 25 20 29 21 3 22 4 23 5 24
REMARK SMILES IDX 6 25 10 26 7 27 9 28 8 29 11 30 13 31 12 32
REMARK H PARENT 17 7 14 8 18 12
ROOT
ATOM      1  N   UNL     1      48.563  56.371  17.448  1.00  0.00    -0.274 N 
ATOM      2  C   UNL     1      47.968  55.932  16.289  1.00  0.00    +0.192 C 
ATOM      3  S   UNL     1      47.455  56.920  15.036  1.00  0.00    -0.039 S 
ATOM      4  N   UNL     1      47.831  54.571  16.143  1.00  0.00    -0.298 N 
ATOM      5  C   UNL     1      48.181  53.585  17.043  1.00  0.00    +0.250 C 
ATOM      6  O   UNL     1      48.603  53.786  18.176  1.00  0.00    -0.270 OA
ATOM      7  H   UNL     1      48.609  55.718  18.242  1.00  0.00    +0.190 HD
ATOM      8  H   UNL     1      47.390  54.294  15.278  1.00  0.00    +0.172 HD
ENDROOT
BRANCH   1   9
ATOM      9  N   UNL     1      48.513  57.732  17.800  1.00  0.00    -0.268 N 
ATOM     10  C   UNL     1      47.812  58.079  18.939  1.00  0.00    +0.242 C 
ATOM     11  O   UNL     1      47.402  57.261  19.756  1.00  0.00    -0.273 OA
ATOM     12  H   UNL     1      48.648  58.394  17.044  1.00  0.00    +0.191 HD
BRANCH  10  13
ATOM     13  C   UNL     1      47.548  59.528  19.153  1.00  0.00    +0.088 C 
ATOM     14  C   UNL     1      46.633  60.286  18.206  1.00  0.00    +0.032 C 
ATOM     15  C   UNL     1      48.102  60.629  18.279  1.00  0.00    +0.023 C 
BRANCH  14  16
ATOM     16  C   UNL     1      45.568  61.227  18.744  1.00  0.00    -0.044 A 
ATOM     17  C   UNL     1      43.507  62.910  19.730  1.00  0.00    +0.000 A 
ATOM     18  C   UNL     1      43.199  61.656  19.216  1.00  0.00    +0.000 A 
ATOM     19  C   UNL     1      44.831  63.334  19.759  1.00  0.00    +0.000 A 
ATOM     20  C   UNL     1      44.219  60.830  18.732  1.00  0.00    +0.004 A 
ATOM     21  C   UNL     1      45.844  62.502  19.271  1.00  0.00    +0.004 A 
ENDBRANCH  14  16
ENDBRANCH  10  13
ENDBRANCH   1   9
BRANCH   5  22
ATOM     22  C   UNL     1      47.931  52.196  16.584  1.00  0.00    +0.072 C 
ATOM     23  C   UNL     1      47.162  51.322  17.250  1.00  0.00    +0.014 C 
BRANCH  23  24
ATOM     24  C   UNL     1      46.894  49.956  16.773  1.00  0.00    -0.022 A 
ATOM     25  C   UNL     1      47.870  49.197  16.089  1.00  0.00    +0.012 A 
ATOM     26  C   UNL     1      45.611  49.419  16.961  1.00  0.00    +0.058 A 
ATOM     27  C   UNL     1      47.586  47.909  15.619  1.00  0.00    +0.051 A 
ATOM     28  C   UNL     1      45.360  48.147  16.489  1.00  0.00    +0.166 A 
ATOM     29  C   UNL     1      46.321  47.412  15.838  1.00  0.00    +0.165 A 
ATOM     30  O   UNL     1      44.180  47.480  16.596  1.00  0.00    -0.454 OA
ATOM     31  O   UNL     1      45.869  46.190  15.454  1.00  0.00    -0.454 OA
ATOM     32  C   UNL     1      44.511  46.237  15.939  1.00  0.00    +0.468 C 
ENDBRANCH  23  24
ENDBRANCH   5  22
TORSDOF 5
ENDMDL
MODEL 5
REMARK VINA RESULT:    -8.885      6.494      8.871
REMARK INTER + INTRA:         -11.874
REMARK INTER:                 -11.541
REMARK INTRA:                  -0.333
REMARK UNBOUND:                -0.392
REMARK SMILES O=C(/C=C/c1ccc2c(c1)OCO2)NC(=S)NNC(=O)[C@H]1C[C@@H]1c1ccccc1
REMARK SMILES IDX 17 1 15 2 16 3 14 4 2 5 1 6 18 9 19 10 20 11 21 13 23 14
REMARK SMILES IDX 22 15 24 16 27 17 26 18 28 19 25 20 29 21 3 22 4 23 5 24
REMARK SMILES IDX 6 25 10 26 7 27 9 28 8 29 11 30 13 31 12 32
REMARK H PARENT 17 7 14 8 18 12
ROOT
ATOM      1  N   UNL     1      48.596  56.136  18.044  1.00  0.00    -0.274 N 
ATOM      2  C   UNL     1      48.571  56.925  19.168  1.00  0.00    +0.192 C 
ATOM      3  S   UNL     1      49.198  56.493  20.662  1.00  0.00    -0.039 S 
ATOM      4  N   UNL     1      48.027  58.181  19.030  1.00  0.00    -0.298 N 
ATOM      5  C   UNL     1      47.459  58.736  17.901  1.00  0.00    +0.250 C 
ATOM      6  O   UNL     1      47.274  58.143  16.844  1.00  0.00    -0.270 OA
ATOM      7  H   UNL     1      47.974  56.391  17.264  1.00  0.00    +0.190 HD
ATOM      8  H   UNL     1      48.030  58.725  19.881  1.00  0.00    +0.172 HD
ENDROOT
BRANCH   1   9
ATOM      9  N   UNL     1      48.890  54.764  18.145  1.00  0.00    -0.268 N 
ATOM     10  C   UNL     1      48.394  53.924  17.167  1.00  0.00    +0.242 C 
ATOM     11  O   UNL     1      47.884  54.324  16.126  1.00  0.00    -0.273 OA
ATOM     12  H   UNL     1      49.102  54.421  19.075  1.00  0.00    +0.191 HD
BRANCH  10  13
ATOM     13  C   UNL     1      48.488  52.461  17.425  1.00  0.00    +0.088 C 
ATOM     14  C   UNL     1      49.846  51.802  17.601  1.00  0.00    +0.032 C 
ATOM     15  C   UNL     1      48.980  51.452  16.414  1.00  0.00    +0.023 C 
BRANCH  14  16
ATOM     16  C   UNL     1      50.087  50.813  18.730  1.00  0.00    -0.044 A 
ATOM     17  C   UNL     1      50.485  48.894  20.781  1.00  0.00    +0.000 A 
ATOM     18  C   UNL     1      49.747  48.565  19.650  1.00  0.00    +0.000 A 
ATOM     19  C   UNL     1      51.027  50.168  20.900  1.00  0.00    +0.000 A 
ATOM     20  C   UNL     1      49.554  49.513  18.641  1.00  0.00    +0.004 A 
ATOM     21  C   UNL     1      50.828  51.112  19.887  1.00  0.00    +0.004 A 
ENDBRANCH  14  16
ENDBRANCH  10  13
ENDBRANCH   1   9
BRANCH   5  22
ATOM     22  C   UNL     1      46.979  60.131  18.059  1.00  0.00    +0.072 C 
ATOM     23  C   UNL     1      45.717  60.515  17.811  1.00  0.00    +0.014 C 
BRANCH  23  24
ATOM     24  C   UNL     1      45.241  61.894  17.999  1.00  0.00    -0.022 A 
ATOM     25  C   UNL     1      44.499  62.281  19.138  1.00  0.00    +0.012 A 
ATOM     26  C   UNL     1      45.491  62.833  16.988  1.00  0.00    +0.058 A 
ATOM     27  C   UNL     1      44.032  63.592  19.285  1.00  0.00    +0.051 A 
ATOM     28  C   UNL     1      45.019  64.119  17.160  1.00  0.00    +0.166 A 
ATOM     29  C   UNL     1      44.312  64.488  18.278  1.00  0.00    +0.165 A 
ATOM     30  O   UNL     1      45.181  65.147  16.284  1.00  0.00    -0.454 OA
ATOM     31  O   UNL     1      43.939  65.795  18.249  1.00  0.00    -0.454 OA
ATOM     32  C   UNL     1      44.495  66.209  16.983  1.00  0.00    +0.468 C 
ENDBRANCH  23  24
ENDBRANCH   5  22
TORSDOF 5
ENDMDL
