MODEL 1
REMARK VINA RESULT:    -8.165      0.000      0.000
REMARK INTER + INTRA:         -17.725
REMARK INTER:                 -14.847
REMARK INTRA:                  -2.878
REMARK UNBOUND:                -2.878
REMARK SMILES CC(C)C[C@H](NC(=O)CNC(=O)OCc1ccccc1)C(=O)N[C@@H](Cc1ccccc1)C(=O)CCl
REMARK SMILES IDX 6 1 7 2 8 3 5 5 4 6 2 7 1 8 3 9 21 10 22 11 23 12 24 14
REMARK SMILES IDX 25 15 26 16 27 17 31 18 28 19 30 20 29 21 32 22 33 23 34 24
REMARK SMILES IDX 35 25 9 26 10 27 11 28 12 29 13 31 14 32 15 33 16 34 20 35
REMARK SMILES IDX 17 36 19 37 18 38
REMARK H PARENT 6 4 23 13 10 30
ROOT
ATOM      1  N   UNL     1      49.061  50.557  18.043  1.00  0.00    -0.343 N 
ATOM      2  C   UNL     1      50.401  50.391  18.314  1.00  0.00    +0.240 C 
ATOM      3  O   UNL     1      51.293  50.763  17.557  1.00  0.00    -0.273 OA
ATOM      4  H   UNL     1      48.371  50.240  18.714  1.00  0.00    +0.164 HD
ENDROOT
BRANCH   1   5
ATOM      5  C   UNL     1      48.582  51.155  16.801  1.00  0.00    +0.171 C 
BRANCH   5   6
ATOM      6  C   UNL     1      47.743  50.191  15.944  1.00  0.00    +0.038 C 
BRANCH   6   7
ATOM      7  C   UNL     1      48.504  49.138  15.107  1.00  0.00    -0.015 C 
ATOM      8  C   UNL     1      49.820  49.749  14.607  1.00  0.00    +0.007 C 
ATOM      9  C   UNL     1      48.809  47.850  15.872  1.00  0.00    +0.007 C 
ENDBRANCH   6   7
ENDBRANCH   5   6
BRANCH   5  10
ATOM     10  C   UNL     1      47.860  52.493  17.078  1.00  0.00    +0.243 C 
ATOM     11  O   UNL     1      46.660  52.572  17.320  1.00  0.00    -0.273 OA
ATOM     12  N   UNL     1      48.665  53.615  16.915  1.00  0.00    -0.344 N 
ATOM     13  H   UNL     1      49.470  53.455  16.312  1.00  0.00    +0.164 HD
BRANCH  12  14
ATOM     14  C   UNL     1      48.073  54.965  17.003  1.00  0.00    +0.154 C 
BRANCH  14  15
ATOM     15  C   UNL     1      49.117  55.977  17.539  1.00  0.00    +0.068 C 
BRANCH  15  16
ATOM     16  C   UNL     1      48.637  56.781  18.726  1.00  0.00    -0.046 A 
ATOM     17  C   UNL     1      47.855  57.929  18.547  1.00  0.00    +0.004 A 
ATOM     18  C   UNL     1      48.964  56.383  20.030  1.00  0.00    +0.004 A 
ATOM     19  C   UNL     1      47.411  58.664  19.649  1.00  0.00    +0.000 A 
ATOM     20  C   UNL     1      48.522  57.119  21.129  1.00  0.00    +0.000 A 
ATOM     21  C   UNL     1      47.746  58.260  20.939  1.00  0.00    +0.000 A 
ENDBRANCH  15  16
ENDBRANCH  14  15
BRANCH  14  22
ATOM     22  C   UNL     1      47.480  55.511  15.679  1.00  0.00    +0.170 C 
ATOM     23  O   UNL     1      46.570  54.921  15.086  1.00  0.00    -0.296 OA
BRANCH  22  24
ATOM     24  C   UNL     1      48.025  56.783  15.087  1.00  0.00    +0.187 C 
ATOM     25 Cl   UNL     1      46.877  57.435  13.907  1.00  0.00    -0.118 Cl
ENDBRANCH  22  24
ENDBRANCH  14  22
ENDBRANCH  12  14
ENDBRANCH   5  10
ENDBRANCH   1   5
BRANCH   2  26
ATOM     26  C   UNL     1      50.692  49.771  19.681  1.00  0.00    +0.219 C 
BRANCH  26  27
ATOM     27  N   UNL     1      50.884  50.826  20.646  1.00  0.00    -0.312 N 
ATOM     28  C   UNL     1      52.139  51.162  21.056  1.00  0.00    +0.407 C 
ATOM     29  O   UNL     1      53.168  50.712  20.568  1.00  0.00    -0.225 OA
ATOM     30  H   UNL     1      50.147  51.033  21.307  1.00  0.00    +0.167 HD
BRANCH  28  31
ATOM     31  O   UNL     1      52.050  52.019  22.096  1.00  0.00    -0.445 OA
BRANCH  31  32
ATOM     32  C   UNL     1      51.029  53.021  21.988  1.00  0.00    +0.270 C 
BRANCH  32  33
ATOM     33  C   UNL     1      51.593  54.365  21.597  1.00  0.00    -0.011 A 
ATOM     34  C   UNL     1      51.651  55.405  22.536  1.00  0.00    +0.007 A 
ATOM     35  C   UNL     1      52.025  54.612  20.286  1.00  0.00    +0.007 A 
ATOM     36  C   UNL     1      52.150  56.658  22.176  1.00  0.00    +0.000 A 
ATOM     37  C   UNL     1      52.525  55.864  19.928  1.00  0.00    +0.000 A 
ATOM     38  C   UNL     1      52.589  56.886  20.873  1.00  0.00    +0.000 A 
ENDBRANCH  32  33
ENDBRANCH  31  32
ENDBRANCH  28  31
ENDBRANCH  26  27
ENDBRANCH   2  26
TORSDOF 14
ENDMDL
MODEL 2
REMARK VINA RESULT:    -8.105      3.520      7.123
REMARK INTER + INTRA:         -17.616
REMARK INTER:                 -15.946
REMARK INTRA:                  -1.670
REMARK UNBOUND:                -2.878
REMARK SMILES CC(C)C[C@H](NC(=O)CNC(=O)OCc1ccccc1)C(=O)N[C@@H](Cc1ccccc1)C(=O)CCl
REMARK SMILES IDX 6 1 7 2 8 3 5 5 4 6 2 7 1 8 3 9 21 10 22 11 23 12 24 14
REMARK SMILES IDX 25 15 26 16 27 17 31 18 28 19 30 20 29 21 32 22 33 23 34 24
REMARK SMILES IDX 35 25 9 26 10 27 11 28 12 29 13 31 14 32 15 33 16 34 20 35
REMARK SMILES IDX 17 36 19 37 18 38
REMARK H PARENT 6 4 23 13 10 30
ROOT
ATOM      1  N   UNL     1      47.972  50.146  17.483  1.00  0.00    -0.343 N 
ATOM      2  C   UNL     1      48.258  49.142  18.379  1.00  0.00    +0.240 C 
ATOM      3  O   UNL     1      49.402  48.826  18.695  1.00  0.00    -0.273 OA
ATOM      4  H   UNL     1      47.006  50.370  17.272  1.00  0.00    +0.164 HD
ENDROOT
BRANCH   1   5
ATOM      5  C   UNL     1      49.013  50.898  16.791  1.00  0.00    +0.171 C 
BRANCH   5   6
ATOM      6  C   UNL     1      48.917  50.806  15.258  1.00  0.00    +0.038 C 
BRANCH   6   7
ATOM      7  C   UNL     1      49.658  49.638  14.569  1.00  0.00    -0.015 C 
ATOM      8  C   UNL     1      51.168  49.911  14.601  1.00  0.00    +0.007 C 
ATOM      9  C   UNL     1      49.382  48.276  15.205  1.00  0.00    +0.007 C 
ENDBRANCH   6   7
ENDBRANCH   5   6
BRANCH   5  10
ATOM     10  C   UNL     1      49.069  52.356  17.300  1.00  0.00    +0.243 C 
ATOM     11  O   UNL     1      48.467  53.280  16.762  1.00  0.00    -0.273 OA
ATOM     12  N   UNL     1      49.953  52.555  18.355  1.00  0.00    -0.344 N 
ATOM     13  H   UNL     1      50.682  51.846  18.414  1.00  0.00    +0.164 HD
BRANCH  12  14
ATOM     14  C   UNL     1      50.218  53.922  18.847  1.00  0.00    +0.154 C 
BRANCH  14  15
ATOM     15  C   UNL     1      49.566  54.129  20.238  1.00  0.00    +0.068 C 
BRANCH  15  16
ATOM     16  C   UNL     1      49.145  55.556  20.510  1.00  0.00    -0.046 A 
ATOM     17  C   UNL     1      47.991  56.089  19.922  1.00  0.00    +0.004 A 
ATOM     18  C   UNL     1      49.905  56.367  21.364  1.00  0.00    +0.004 A 
ATOM     19  C   UNL     1      47.607  57.407  20.182  1.00  0.00    +0.000 A 
ATOM     20  C   UNL     1      49.521  57.683  21.621  1.00  0.00    +0.000 A 
ATOM     21  C   UNL     1      48.372  58.204  21.030  1.00  0.00    +0.000 A 
ENDBRANCH  15  16
ENDBRANCH  14  15
BRANCH  14  22
ATOM     22  C   UNL     1      51.715  54.312  18.931  1.00  0.00    +0.170 C 
ATOM     23  O   UNL     1      52.087  55.485  18.812  1.00  0.00    -0.296 OA
BRANCH  22  24
ATOM     24  C   UNL     1      52.752  53.242  19.152  1.00  0.00    +0.187 C 
ATOM     25 Cl   UNL     1      52.412  52.381  20.662  1.00  0.00    -0.118 Cl
ENDBRANCH  22  24
ENDBRANCH  14  22
ENDBRANCH  12  14
ENDBRANCH   5  10
ENDBRANCH   1   5
BRANCH   2  26
ATOM     26  C   UNL     1      47.025  48.498  19.014  1.00  0.00    +0.219 C 
BRANCH  26  27
ATOM     27  N   UNL     1      45.941  48.514  18.063  1.00  0.00    -0.312 N 
ATOM     28  C   UNL     1      44.825  47.763  18.279  1.00  0.00    +0.407 C 
ATOM     29  O   UNL     1      44.600  47.144  19.310  1.00  0.00    -0.225 OA
ATOM     30  H   UNL     1      46.136  48.722  17.092  1.00  0.00    +0.167 HD
BRANCH  28  31
ATOM     31  O   UNL     1      44.055  47.786  17.170  1.00  0.00    -0.445 OA
BRANCH  31  32
ATOM     32  C   UNL     1      44.379  46.809  16.169  1.00  0.00    +0.270 C 
BRANCH  32  33
ATOM     33  C   UNL     1      44.594  47.437  14.813  1.00  0.00    -0.011 A 
ATOM     34  C   UNL     1      43.526  47.544  13.910  1.00  0.00    +0.007 A 
ATOM     35  C   UNL     1      45.863  47.882  14.418  1.00  0.00    +0.007 A 
ATOM     36  C   UNL     1      43.721  48.103  12.646  1.00  0.00    +0.000 A 
ATOM     37  C   UNL     1      46.056  48.441  13.154  1.00  0.00    +0.000 A 
ATOM     38  C   UNL     1      44.985  48.553  12.270  1.00  0.00    +0.000 A 
ENDBRANCH  32  33
ENDBRANCH  31  32
ENDBRANCH  28  31
ENDBRANCH  26  27
ENDBRANCH   2  26
TORSDOF 14
ENDMDL
MODEL 3
REMARK VINA RESULT:    -8.020      2.949      6.848
REMARK INTER + INTRA:         -17.463
REMARK INTER:                 -16.071
REMARK INTRA:                  -1.391
REMARK UNBOUND:                -2.878
REMARK SMILES CC(C)C[C@H](NC(=O)CNC(=O)OCc1ccccc1)C(=O)N[C@@H](Cc1ccccc1)C(=O)CCl
REMARK SMILES IDX 6 1 7 2 8 3 5 5 4 6 2 7 1 8 3 9 21 10 22 11 23 12 24 14
REMARK SMILES IDX 25 15 26 16 27 17 31 18 28 19 30 20 29 21 32 22 33 23 34 24
REMARK SMILES IDX 35 25 9 26 10 27 11 28 12 29 13 31 14 32 15 33 16 34 20 35
REMARK SMILES IDX 17 36 19 37 18 38
REMARK H PARENT 6 4 23 13 10 30
ROOT
ATOM      1  N   UNL     1      49.750  55.783  19.767  1.00  0.00    -0.343 N 
ATOM      2  C   UNL     1      50.088  54.459  19.937  1.00  0.00    +0.240 C 
ATOM      3  O   UNL     1      49.807  53.816  20.944  1.00  0.00    -0.273 OA
ATOM      4  H   UNL     1      49.999  56.257  18.906  1.00  0.00    +0.164 HD
ENDROOT
BRANCH   1   5
ATOM      5  C   UNL     1      49.063  56.554  20.797  1.00  0.00    +0.171 C 
BRANCH   5   6
ATOM      6  C   UNL     1      50.022  57.274  21.762  1.00  0.00    +0.038 C 
BRANCH   6   7
ATOM      7  C   UNL     1      51.525  56.929  21.660  1.00  0.00    -0.015 C 
ATOM      8  C   UNL     1      52.341  58.228  21.668  1.00  0.00    +0.007 C 
ATOM      9  C   UNL     1      52.022  56.018  22.781  1.00  0.00    +0.007 C 
ENDBRANCH   6   7
ENDBRANCH   5   6
BRANCH   5  10
ATOM     10  C   UNL     1      48.021  57.506  20.168  1.00  0.00    +0.243 C 
ATOM     11  O   UNL     1      47.029  57.909  20.768  1.00  0.00    -0.273 OA
ATOM     12  N   UNL     1      48.240  57.776  18.821  1.00  0.00    -0.344 N 
ATOM     13  H   UNL     1      48.803  57.070  18.350  1.00  0.00    +0.164 HD
BRANCH  12  14
ATOM     14  C   UNL     1      47.245  58.552  18.054  1.00  0.00    +0.154 C 
BRANCH  14  15
ATOM     15  C   UNL     1      47.632  60.052  18.033  1.00  0.00    +0.068 C 
BRANCH  15  16
ATOM     16  C   UNL     1      46.561  60.968  18.583  1.00  0.00    -0.046 A 
ATOM     17  C   UNL     1      46.891  62.033  19.430  1.00  0.00    +0.004 A 
ATOM     18  C   UNL     1      45.216  60.766  18.245  1.00  0.00    +0.004 A 
ATOM     19  C   UNL     1      45.897  62.877  19.930  1.00  0.00    +0.000 A 
ATOM     20  C   UNL     1      44.223  61.608  18.747  1.00  0.00    +0.000 A 
ATOM     21  C   UNL     1      44.563  62.663  19.590  1.00  0.00    +0.000 A 
ENDBRANCH  15  16
ENDBRANCH  14  15
BRANCH  14  22
ATOM     22  C   UNL     1      47.018  58.072  16.598  1.00  0.00    +0.170 C 
ATOM     23  O   UNL     1      46.190  58.616  15.859  1.00  0.00    -0.296 OA
BRANCH  22  24
ATOM     24  C   UNL     1      47.813  56.909  16.065  1.00  0.00    +0.187 C 
ATOM     25 Cl   UNL     1      46.806  55.947  14.971  1.00  0.00    -0.118 Cl
ENDBRANCH  22  24
ENDBRANCH  14  22
ENDBRANCH  12  14
ENDBRANCH   5  10
ENDBRANCH   1   5
BRANCH   2  26
ATOM     26  C   UNL     1      50.778  53.828  18.727  1.00  0.00    +0.219 C 
BRANCH  26  27
ATOM     27  N   UNL     1      50.547  52.404  18.742  1.00  0.00    -0.312 N 
ATOM     28  C   UNL     1      49.537  51.864  18.004  1.00  0.00    +0.407 C 
ATOM     29  O   UNL     1      48.857  52.491  17.203  1.00  0.00    -0.225 OA
ATOM     30  H   UNL     1      50.820  51.866  19.554  1.00  0.00    +0.167 HD
BRANCH  28  31
ATOM     31  O   UNL     1      49.393  50.563  18.337  1.00  0.00    -0.445 OA
BRANCH  31  32
ATOM     32  C   UNL     1      48.954  49.697  17.281  1.00  0.00    +0.270 C 
BRANCH  32  33
ATOM     33  C   UNL     1      47.580  49.132  17.546  1.00  0.00    -0.011 A 
ATOM     34  C   UNL     1      46.528  49.391  16.656  1.00  0.00    +0.007 A 
ATOM     35  C   UNL     1      47.320  48.381  18.700  1.00  0.00    +0.007 A 
ATOM     36  C   UNL     1      45.249  48.891  16.905  1.00  0.00    +0.000 A 
ATOM     37  C   UNL     1      46.041  47.881  18.948  1.00  0.00    +0.000 A 
ATOM     38  C   UNL     1      45.006  48.134  18.050  1.00  0.00    +0.000 A 
ENDBRANCH  32  33
ENDBRANCH  31  32
ENDBRANCH  28  31
ENDBRANCH  26  27
ENDBRANCH   2  26
TORSDOF 14
ENDMDL
MODEL 4
REMARK VINA RESULT:    -7.914      2.922      6.908
REMARK INTER + INTRA:         -17.270
REMARK INTER:                 -15.881
REMARK INTRA:                  -1.389
REMARK UNBOUND:                -2.878
REMARK SMILES CC(C)C[C@H](NC(=O)CNC(=O)OCc1ccccc1)C(=O)N[C@@H](Cc1ccccc1)C(=O)CCl
REMARK SMILES IDX 6 1 7 2 8 3 5 5 4 6 2 7 1 8 3 9 21 10 22 11 23 12 24 14
REMARK SMILES IDX 25 15 26 16 27 17 31 18 28 19 30 20 29 21 32 22 33 23 34 24
REMARK SMILES IDX 35 25 9 26 10 27 11 28 12 29 13 31 14 32 15 33 16 34 20 35
REMARK SMILES IDX 17 36 19 37 18 38
REMARK H PARENT 6 4 23 13 10 30
ROOT
ATOM      1  N   UNL     1      50.128  51.768  18.827  1.00  0.00    -0.343 N 
ATOM      2  C   UNL     1      51.023  50.725  18.743  1.00  0.00    +0.240 C 
ATOM      3  O   UNL     1      52.058  50.776  18.083  1.00  0.00    -0.273 OA
ATOM      4  H   UNL     1      49.297  51.670  19.400  1.00  0.00    +0.164 HD
ENDROOT
BRANCH   1   5
ATOM      5  C   UNL     1      50.311  53.017  18.097  1.00  0.00    +0.171 C 
BRANCH   5   6
ATOM      6  C   UNL     1      48.997  53.782  17.857  1.00  0.00    +0.038 C 
BRANCH   6   7
ATOM      7  C   UNL     1      48.170  53.398  16.609  1.00  0.00    -0.015 C 
ATOM      8  C   UNL     1      47.111  52.362  17.007  1.00  0.00    +0.007 C 
ATOM      9  C   UNL     1      47.481  54.587  15.941  1.00  0.00    +0.007 C 
ENDBRANCH   6   7
ENDBRANCH   5   6
BRANCH   5  10
ATOM     10  C   UNL     1      51.398  53.890  18.765  1.00  0.00    +0.243 C 
ATOM     11  O   UNL     1      52.592  53.796  18.500  1.00  0.00    -0.273 OA
ATOM     12  N   UNL     1      50.920  54.713  19.779  1.00  0.00    -0.344 N 
ATOM     13  H   UNL     1      50.043  54.392  20.185  1.00  0.00    +0.164 HD
BRANCH  12  14
ATOM     14  C   UNL     1      51.866  55.493  20.602  1.00  0.00    +0.154 C 
BRANCH  14  15
ATOM     15  C   UNL     1      51.600  57.011  20.434  1.00  0.00    +0.068 C 
BRANCH  15  16
ATOM     16  C   UNL     1      50.136  57.386  20.499  1.00  0.00    -0.046 A 
ATOM     17  C   UNL     1      49.293  57.187  19.399  1.00  0.00    +0.004 A 
ATOM     18  C   UNL     1      49.599  57.935  21.671  1.00  0.00    +0.004 A 
ATOM     19  C   UNL     1      47.941  57.532  19.469  1.00  0.00    +0.000 A 
ATOM     20  C   UNL     1      48.249  58.281  21.740  1.00  0.00    +0.000 A 
ATOM     21  C   UNL     1      47.420  58.080  20.639  1.00  0.00    +0.000 A 
ENDBRANCH  15  16
ENDBRANCH  14  15
BRANCH  14  22
ATOM     22  C   UNL     1      51.863  55.148  22.112  1.00  0.00    +0.170 C 
ATOM     23  O   UNL     1      52.377  55.899  22.949  1.00  0.00    -0.296 OA
BRANCH  22  24
ATOM     24  C   UNL     1      51.231  53.864  22.582  1.00  0.00    +0.187 C 
ATOM     25 Cl   UNL     1      52.044  52.485  21.824  1.00  0.00    -0.118 Cl
ENDBRANCH  22  24
ENDBRANCH  14  22
ENDBRANCH  12  14
ENDBRANCH   5  10
ENDBRANCH   1   5
BRANCH   2  26
ATOM     26  C   UNL     1      50.662  49.517  19.607  1.00  0.00    +0.219 C 
BRANCH  26  27
ATOM     27  N   UNL     1      50.131  48.474  18.763  1.00  0.00    -0.312 N 
ATOM     28  C   UNL     1      48.857  48.557  18.286  1.00  0.00    +0.407 C 
ATOM     29  O   UNL     1      48.134  49.535  18.417  1.00  0.00    -0.225 OA
ATOM     30  H   UNL     1      50.498  47.535  18.845  1.00  0.00    +0.167 HD
BRANCH  28  31
ATOM     31  O   UNL     1      48.528  47.385  17.701  1.00  0.00    -0.445 OA
BRANCH  31  32
ATOM     32  C   UNL     1      48.431  47.412  16.270  1.00  0.00    +0.270 C 
BRANCH  32  33
ATOM     33  C   UNL     1      46.997  47.445  15.800  1.00  0.00    -0.011 A 
ATOM     34  C   UNL     1      46.655  48.136  14.628  1.00  0.00    +0.007 A 
ATOM     35  C   UNL     1      45.980  46.828  16.542  1.00  0.00    +0.007 A 
ATOM     36  C   UNL     1      45.328  48.190  14.198  1.00  0.00    +0.000 A 
ATOM     37  C   UNL     1      44.655  46.882  16.111  1.00  0.00    +0.000 A 
ATOM     38  C   UNL     1      44.329  47.561  14.939  1.00  0.00    +0.000 A 
ENDBRANCH  32  33
ENDBRANCH  31  32
ENDBRANCH  28  31
ENDBRANCH  26  27
ENDBRANCH   2  26
TORSDOF 14
ENDMDL
MODEL 5
REMARK VINA RESULT:    -7.876      2.816      5.902
REMARK INTER + INTRA:         -17.200
REMARK INTER:                 -15.551
REMARK INTRA:                  -1.649
REMARK UNBOUND:                -2.878
REMARK SMILES CC(C)C[C@H](NC(=O)CNC(=O)OCc1ccccc1)C(=O)N[C@@H](Cc1ccccc1)C(=O)CCl
REMARK SMILES IDX 6 1 7 2 8 3 5 5 4 6 2 7 1 8 3 9 21 10 22 11 23 12 24 14
REMARK SMILES IDX 25 15 26 16 27 17 31 18 28 19 30 20 29 21 32 22 33 23 34 24
REMARK SMILES IDX 35 25 9 26 10 27 11 28 12 29 13 31 14 32 15 33 16 34 20 35
REMARK SMILES IDX 17 36 19 37 18 38
REMARK H PARENT 6 4 23 13 10 30
ROOT
ATOM      1  N   UNL     1      50.906  52.359  18.763  1.00  0.00    -0.343 N 
ATOM      2  C   UNL     1      52.209  51.976  18.540  1.00  0.00    +0.240 C 
ATOM      3  O   UNL     1      53.054  52.716  18.045  1.00  0.00    -0.273 OA
ATOM      4  H   UNL     1      50.257  51.705  19.189  1.00  0.00    +0.164 HD
ENDROOT
BRANCH   1   5
ATOM      5  C   UNL     1      50.401  53.674  18.386  1.00  0.00    +0.171 C 
BRANCH   5   6
ATOM      6  C   UNL     1      49.095  53.616  17.573  1.00  0.00    +0.038 C 
BRANCH   6   7
ATOM      7  C   UNL     1      48.447  52.228  17.367  1.00  0.00    -0.015 C 
ATOM      8  C   UNL     1      46.930  52.398  17.220  1.00  0.00    +0.007 C 
ATOM      9  C   UNL     1      48.987  51.475  16.151  1.00  0.00    +0.007 C 
ENDBRANCH   6   7
ENDBRANCH   5   6
BRANCH   5  10
ATOM     10  C   UNL     1      50.297  54.598  19.620  1.00  0.00    +0.243 C 
ATOM     11  O   UNL     1      49.659  54.306  20.627  1.00  0.00    -0.273 OA
ATOM     12  N   UNL     1      50.893  55.842  19.448  1.00  0.00    -0.344 N 
ATOM     13  H   UNL     1      50.992  56.116  18.472  1.00  0.00    +0.164 HD
BRANCH  12  14
ATOM     14  C   UNL     1      50.746  56.880  20.489  1.00  0.00    +0.154 C 
BRANCH  14  15
ATOM     15  C   UNL     1      49.259  57.015  20.905  1.00  0.00    +0.068 C 
BRANCH  15  16
ATOM     16  C   UNL     1      48.426  57.831  19.942  1.00  0.00    -0.046 A 
ATOM     17  C   UNL     1      48.222  57.401  18.625  1.00  0.00    +0.004 A 
ATOM     18  C   UNL     1      47.838  59.034  20.358  1.00  0.00    +0.004 A 
ATOM     19  C   UNL     1      47.447  58.158  17.743  1.00  0.00    +0.000 A 
ATOM     20  C   UNL     1      47.067  59.790  19.475  1.00  0.00    +0.000 A 
ATOM     21  C   UNL     1      46.871  59.353  18.168  1.00  0.00    +0.000 A 
ENDBRANCH  15  16
ENDBRANCH  14  15
BRANCH  14  22
ATOM     22  C   UNL     1      51.605  56.663  21.760  1.00  0.00    +0.170 C 
ATOM     23  O   UNL     1      51.181  56.019  22.726  1.00  0.00    -0.296 OA
BRANCH  22  24
ATOM     24  C   UNL     1      52.987  57.256  21.835  1.00  0.00    +0.187 C 
ATOM     25 Cl   UNL     1      53.011  58.825  21.014  1.00  0.00    -0.118 Cl
ENDBRANCH  22  24
ENDBRANCH  14  22
ENDBRANCH  12  14
ENDBRANCH   5  10
ENDBRANCH   1   5
BRANCH   2  26
ATOM     26  C   UNL     1      52.543  50.568  19.035  1.00  0.00    +0.219 C 
BRANCH  26  27
ATOM     27  N   UNL     1      51.429  49.694  18.758  1.00  0.00    -0.312 N 
ATOM     28  C   UNL     1      50.568  49.342  19.754  1.00  0.00    +0.407 C 
ATOM     29  O   UNL     1      50.586  49.817  20.882  1.00  0.00    -0.225 OA
ATOM     30  H   UNL     1      51.495  49.034  17.995  1.00  0.00    +0.167 HD
BRANCH  28  31
ATOM     31  O   UNL     1      49.744  48.371  19.303  1.00  0.00    -0.445 OA
BRANCH  31  32
ATOM     32  C   UNL     1      48.341  48.657  19.391  1.00  0.00    +0.270 C 
BRANCH  32  33
ATOM     33  C   UNL     1      47.654  48.538  18.052  1.00  0.00    -0.011 A 
ATOM     34  C   UNL     1      48.355  48.048  16.941  1.00  0.00    +0.007 A 
ATOM     35  C   UNL     1      46.325  48.954  17.885  1.00  0.00    +0.007 A 
ATOM     36  C   UNL     1      47.734  47.956  15.695  1.00  0.00    +0.000 A 
ATOM     37  C   UNL     1      45.705  48.860  16.639  1.00  0.00    +0.000 A 
ATOM     38  C   UNL     1      46.409  48.360  15.545  1.00  0.00    +0.000 A 
ENDBRANCH  32  33
ENDBRANCH  31  32
ENDBRANCH  28  31
ENDBRANCH  26  27
ENDBRANCH   2  26
TORSDOF 14
ENDMDL
