MODEL 1
REMARK VINA RESULT:    -5.993      0.000      0.000
REMARK INTER + INTRA:          -7.567
REMARK INTER:                  -7.044
REMARK INTRA:                  -0.523
REMARK UNBOUND:                -0.523
REMARK SMILES C[C@H]1CS(=O)(=O)C[C@H]1C(C(N)=O)C(N)=O
REMARK SMILES IDX 9 1 8 2 2 3 3 4 4 5 7 6 5 7 6 8 1 9 10 10 12 11 11 12 13 15
REMARK SMILES IDX 15 16 14 17
REMARK H PARENT 11 13 11 14 14 18 14 19
ROOT
ATOM      1  C   UNL     1      51.004  52.237  19.929  1.00  0.00    +0.171 C 
ENDROOT
BRANCH   1   2
ATOM      2  C   UNL     1      51.481  53.704  19.981  1.00  0.00    +0.030 C 
ATOM      3  C   UNL     1      50.537  54.734  19.299  1.00  0.00    +0.006 C 
ATOM      4  C   UNL     1      51.123  56.113  19.640  1.00  0.00    +0.140 C 
ATOM      5  S   UNL     1      51.766  55.986  21.301  1.00  0.00    +0.150 S 
ATOM      6  C   UNL     1      51.669  54.207  21.426  1.00  0.00    +0.142 C 
ATOM      7  O   UNL     1      50.812  56.575  22.216  1.00  0.00    -0.229 OA
ATOM      8  O   UNL     1      53.161  56.374  21.274  1.00  0.00    -0.229 OA
ATOM      9  C   UNL     1      49.071  54.644  19.733  1.00  0.00    +0.009 C 
ENDBRANCH   1   2
BRANCH   1  10
ATOM     10  C   UNL     1      51.953  51.336  20.702  1.00  0.00    +0.230 C 
ATOM     11  O   UNL     1      53.102  51.123  20.329  1.00  0.00    -0.274 OA
ATOM     12  N   UNL     1      51.445  50.645  21.763  1.00  0.00    -0.369 N 
ATOM     13  H   UNL     1      50.697  51.048  22.316  1.00  0.00    +0.159 HD
ATOM     14  H   UNL     1      52.135  50.117  22.288  1.00  0.00    +0.159 HD
ENDBRANCH   1  10
BRANCH   1  15
ATOM     15  C   UNL     1      50.742  51.727  18.520  1.00  0.00    +0.230 C 
ATOM     16  O   UNL     1      49.632  51.371  18.138  1.00  0.00    -0.274 OA
ATOM     17  N   UNL     1      51.809  51.619  17.673  1.00  0.00    -0.369 N 
ATOM     18  H   UNL     1      51.572  51.360  16.720  1.00  0.00    +0.159 HD
ATOM     19  H   UNL     1      52.658  52.154  17.791  1.00  0.00    +0.159 HD
ENDBRANCH   1  15
TORSDOF 3
ENDMDL
MODEL 2
REMARK VINA RESULT:    -5.830      3.808      5.980
REMARK INTER + INTRA:          -7.376
REMARK INTER:                  -7.057
REMARK INTRA:                  -0.318
REMARK UNBOUND:                -0.523
REMARK SMILES C[C@H]1CS(=O)(=O)C[C@H]1C(C(N)=O)C(N)=O
REMARK SMILES IDX 9 1 8 2 2 3 3 4 4 5 7 6 5 7 6 8 1 9 10 10 12 11 11 12 13 15
REMARK SMILES IDX 15 16 14 17
REMARK H PARENT 11 13 11 14 14 18 14 19
ROOT
ATOM      1  C   UNL     1      50.843  50.377  18.809  1.00  0.00    +0.171 C 
ENDROOT
BRANCH   1   2
ATOM      2  C   UNL     1      49.346  50.066  18.597  1.00  0.00    +0.030 C 
ATOM      3  C   UNL     1      48.712  50.689  17.322  1.00  0.00    +0.006 C 
ATOM      4  C   UNL     1      47.298  50.094  17.237  1.00  0.00    +0.140 C 
ATOM      5  S   UNL     1      47.428  48.410  17.816  1.00  0.00    +0.150 S 
ATOM      6  C   UNL     1      49.072  48.552  18.500  1.00  0.00    +0.142 C 
ATOM      7  O   UNL     1      47.469  47.526  16.671  1.00  0.00    -0.229 OA
ATOM      8  O   UNL     1      46.488  48.233  18.903  1.00  0.00    -0.229 OA
ATOM      9  C   UNL     1      49.489  50.430  16.028  1.00  0.00    +0.009 C 
ENDBRANCH   1   2
BRANCH   1  10
ATOM     10  C   UNL     1      51.378  49.642  20.026  1.00  0.00    +0.230 C 
ATOM     11  O   UNL     1      50.897  49.792  21.145  1.00  0.00    -0.274 OA
ATOM     12  N   UNL     1      52.516  48.905  19.870  1.00  0.00    -0.369 N 
ATOM     13  H   UNL     1      52.706  48.452  18.983  1.00  0.00    +0.159 HD
ATOM     14  H   UNL     1      52.787  48.376  20.693  1.00  0.00    +0.159 HD
ENDBRANCH   1  10
BRANCH   1  15
ATOM     15  C   UNL     1      51.160  51.865  18.847  1.00  0.00    +0.230 C 
ATOM     16  O   UNL     1      50.554  52.655  19.563  1.00  0.00    -0.274 OA
ATOM     17  N   UNL     1      52.130  52.332  18.005  1.00  0.00    -0.369 N 
ATOM     18  H   UNL     1      52.367  53.311  18.129  1.00  0.00    +0.159 HD
ATOM     19  H   UNL     1      52.858  51.741  17.628  1.00  0.00    +0.159 HD
ENDBRANCH   1  15
TORSDOF 3
ENDMDL
MODEL 3
REMARK VINA RESULT:    -5.750      3.338      4.382
REMARK INTER + INTRA:          -7.281
REMARK INTER:                  -6.813
REMARK INTRA:                  -0.468
REMARK UNBOUND:                -0.523
REMARK SMILES C[C@H]1CS(=O)(=O)C[C@H]1C(C(N)=O)C(N)=O
REMARK SMILES IDX 9 1 8 2 2 3 3 4 4 5 7 6 5 7 6 8 1 9 10 10 12 11 11 12 13 15
REMARK SMILES IDX 15 16 14 17
REMARK H PARENT 11 13 11 14 14 18 14 19
ROOT
ATOM      1  C   UNL     1      49.003  50.646  17.953  1.00  0.00    +0.171 C 
ENDROOT
BRANCH   1   2
ATOM      2  C   UNL     1      50.462  50.799  18.430  1.00  0.00    +0.030 C 
ATOM      3  C   UNL     1      50.998  52.258  18.472  1.00  0.00    +0.006 C 
ATOM      4  C   UNL     1      52.377  52.167  19.143  1.00  0.00    +0.140 C 
ATOM      5  S   UNL     1      52.243  50.898  20.392  1.00  0.00    +0.150 S 
ATOM      6  C   UNL     1      50.675  50.238  19.850  1.00  0.00    +0.142 C 
ATOM      7  O   UNL     1      52.068  51.531  21.681  1.00  0.00    -0.229 OA
ATOM      8  O   UNL     1      53.273  49.911  20.142  1.00  0.00    -0.229 OA
ATOM      9  C   UNL     1      50.097  53.250  19.214  1.00  0.00    +0.009 C 
ENDBRANCH   1   2
BRANCH   1  10
ATOM     10  C   UNL     1      48.530  49.212  18.120  1.00  0.00    +0.230 C 
ATOM     11  O   UNL     1      47.719  48.887  18.982  1.00  0.00    -0.274 OA
ATOM     12  N   UNL     1      49.145  48.252  17.371  1.00  0.00    -0.369 N 
ATOM     13  H   UNL     1      49.491  48.479  16.445  1.00  0.00    +0.159 HD
ATOM     14  H   UNL     1      48.742  47.325  17.466  1.00  0.00    +0.159 HD
ENDBRANCH   1  10
BRANCH   1  15
ATOM     15  C   UNL     1      48.759  51.174  16.547  1.00  0.00    +0.230 C 
ATOM     16  O   UNL     1      49.319  50.712  15.558  1.00  0.00    -0.274 OA
ATOM     17  N   UNL     1      47.917  52.241  16.404  1.00  0.00    -0.369 N 
ATOM     18  H   UNL     1      47.716  52.500  15.443  1.00  0.00    +0.159 HD
ATOM     19  H   UNL     1      47.208  52.474  17.085  1.00  0.00    +0.159 HD
ENDBRANCH   1  15
TORSDOF 3
ENDMDL
MODEL 4
REMARK VINA RESULT:    -5.525      5.884      7.810
REMARK INTER + INTRA:          -7.017
REMARK INTER:                  -6.565
REMARK INTRA:                  -0.452
REMARK UNBOUND:                -0.523
REMARK SMILES C[C@H]1CS(=O)(=O)C[C@H]1C(C(N)=O)C(N)=O
REMARK SMILES IDX 9 1 8 2 2 3 3 4 4 5 7 6 5 7 6 8 1 9 10 10 12 11 11 12 13 15
REMARK SMILES IDX 15 16 14 17
REMARK H PARENT 11 13 11 14 14 18 14 19
ROOT
ATOM      1  C   UNL     1      48.998  49.821  15.952  1.00  0.00    +0.171 C 
ENDROOT
BRANCH   1   2
ATOM      2  C   UNL     1      47.618  49.180  16.204  1.00  0.00    +0.030 C 
ATOM      3  C   UNL     1      47.562  47.635  16.041  1.00  0.00    +0.006 C 
ATOM      4  C   UNL     1      46.161  47.223  16.517  1.00  0.00    +0.140 C 
ATOM      5  S   UNL     1      45.758  48.304  17.880  1.00  0.00    +0.150 S 
ATOM      6  C   UNL     1      47.091  49.466  17.625  1.00  0.00    +0.142 C 
ATOM      7  O   UNL     1      45.984  47.593  19.120  1.00  0.00    -0.229 OA
ATOM      8  O   UNL     1      44.504  48.963  17.577  1.00  0.00    -0.229 OA
ATOM      9  C   UNL     1      48.644  46.871  16.811  1.00  0.00    +0.009 C 
ENDBRANCH   1   2
BRANCH   1  10
ATOM     10  C   UNL     1      49.017  51.263  16.432  1.00  0.00    +0.230 C 
ATOM     11  O   UNL     1      48.253  52.112  15.981  1.00  0.00    -0.274 OA
ATOM     12  N   UNL     1      50.014  51.632  17.286  1.00  0.00    -0.369 N 
ATOM     13  H   UNL     1      50.385  50.960  17.949  1.00  0.00    +0.159 HD
ATOM     14  H   UNL     1      49.937  52.583  17.633  1.00  0.00    +0.159 HD
ENDBRANCH   1  10
BRANCH   1  15
ATOM     15  C   UNL     1      49.486  49.683  14.518  1.00  0.00    +0.230 C 
ATOM     16  O   UNL     1      50.619  49.308  14.235  1.00  0.00    -0.274 OA
ATOM     17  N   UNL     1      48.630  50.044  13.516  1.00  0.00    -0.369 N 
ATOM     18  H   UNL     1      48.965  49.850  12.577  1.00  0.00    +0.159 HD
ATOM     19  H   UNL     1      47.626  50.063  13.634  1.00  0.00    +0.159 HD
ENDBRANCH   1  15
TORSDOF 3
ENDMDL
MODEL 5
REMARK VINA RESULT:    -5.250      2.870      4.347
REMARK INTER + INTRA:          -6.694
REMARK INTER:                  -6.494
REMARK INTRA:                  -0.200
REMARK UNBOUND:                -0.523
REMARK SMILES C[C@H]1CS(=O)(=O)C[C@H]1C(C(N)=O)C(N)=O
REMARK SMILES IDX 9 1 8 2 2 3 3 4 4 5 7 6 5 7 6 8 1 9 10 10 12 11 11 12 13 15
REMARK SMILES IDX 15 16 14 17
REMARK H PARENT 11 13 11 14 14 18 14 19
ROOT
ATOM      1  C   UNL     1      50.107  49.737  18.132  1.00  0.00    +0.171 C 
ENDROOT
BRANCH   1   2
ATOM      2  C   UNL     1      50.199  50.728  19.311  1.00  0.00    +0.030 C 
ATOM      3  C   UNL     1      51.232  50.357  20.412  1.00  0.00    +0.006 C 
ATOM      4  C   UNL     1      51.269  51.565  21.361  1.00  0.00    +0.140 C 
ATOM      5  S   UNL     1      51.071  53.013  20.334  1.00  0.00    +0.150 S 
ATOM      6  C   UNL     1      50.573  52.151  18.852  1.00  0.00    +0.142 C 
ATOM      7  O   UNL     1      52.371  53.612  20.118  1.00  0.00    -0.229 OA
ATOM      8  O   UNL     1      49.939  53.767  20.834  1.00  0.00    -0.229 OA
ATOM      9  C   UNL     1      52.635  50.033  19.889  1.00  0.00    +0.009 C 
ENDBRANCH   1   2
BRANCH   1  10
ATOM     10  C   UNL     1      50.154  50.475  16.805  1.00  0.00    +0.230 C 
ATOM     11  O   UNL     1      49.144  50.923  16.269  1.00  0.00    -0.274 OA
ATOM     12  N   UNL     1      51.344  50.507  16.140  1.00  0.00    -0.369 N 
ATOM     13  H   UNL     1      52.214  50.518  16.663  1.00  0.00    +0.159 HD
ATOM     14  H   UNL     1      51.339  51.074  15.298  1.00  0.00    +0.159 HD
ENDBRANCH   1  10
BRANCH   1  15
ATOM     15  C   UNL     1      48.924  48.785  18.222  1.00  0.00    +0.230 C 
ATOM     16  O   UNL     1      48.087  48.847  19.117  1.00  0.00    -0.274 OA
ATOM     17  N   UNL     1      48.833  47.791  17.288  1.00  0.00    -0.369 N 
ATOM     18  H   UNL     1      47.982  47.238  17.335  1.00  0.00    +0.159 HD
ATOM     19  H   UNL     1      49.276  47.850  16.381  1.00  0.00    +0.159 HD
ENDBRANCH   1  15
TORSDOF 3
ENDMDL
