MODEL 1
REMARK VINA RESULT:    -9.596      0.000      0.000
REMARK INTER + INTRA:         -14.216
REMARK INTER:                 -12.961
REMARK INTRA:                  -1.255
REMARK UNBOUND:                -1.255
REMARK SMILES C/C(OC/C(=N\NC(N)=O)c1ccccc1)=C(/C#N)c1ccccc1
REMARK SMILES IDX 4 1 3 2 2 3 17 4 18 5 19 6 1 7 20 8 21 9 25 10 22 11 24 12
REMARK SMILES IDX 23 13 5 14 6 15 11 16 12 17 16 18 13 19 15 20 14 21 7 22
REMARK SMILES IDX 8 23 10 24 9 25
REMARK H PARENT 7 26 9 27 9 28
ROOT
ATOM      1  C   UNL     1      49.564  53.790  18.398  1.00  0.00    +0.287 C 
ENDROOT
BRANCH   1   2
ATOM      2  O   UNL     1      49.749  52.375  18.325  1.00  0.00    -0.490 OA
BRANCH   2   3
ATOM      3  C   UNL     1      48.754  51.734  17.587  1.00  0.00    +0.112 C 
ATOM      4  C   UNL     1      48.542  50.409  17.752  1.00  0.00    +0.097 C 
ATOM      5  C   UNL     1      49.361  49.651  18.645  1.00  0.00    +0.103 C 
ATOM      6  N   UNL     1      50.046  49.073  19.384  1.00  0.00    -0.192 NA
ATOM      7  C   UNL     1      47.893  52.642  16.745  1.00  0.00    +0.088 C 
BRANCH   4   8
ATOM      8  C   UNL     1      47.480  49.691  17.025  1.00  0.00    -0.004 A 
ATOM      9  C   UNL     1      47.708  49.224  15.723  1.00  0.00    +0.009 A 
ATOM     10  C   UNL     1      46.233  49.469  17.625  1.00  0.00    +0.009 A 
ATOM     11  C   UNL     1      46.703  48.540  15.035  1.00  0.00    +0.001 A 
ATOM     12  C   UNL     1      45.231  48.786  16.933  1.00  0.00    +0.001 A 
ATOM     13  C   UNL     1      45.467  48.321  15.640  1.00  0.00    +0.000 A 
ENDBRANCH   4   8
ENDBRANCH   2   3
ENDBRANCH   1   2
BRANCH   1  14
ATOM     14  C   UNL     1      50.201  54.437  19.637  1.00  0.00    +0.105 C 
ATOM     15  N   UNL     1      51.300  54.051  20.220  1.00  0.00    -0.172 NA
BRANCH  14  16
ATOM     16  C   UNL     1      49.525  55.655  20.193  1.00  0.00    +0.001 A 
ATOM     17  C   UNL     1      50.190  56.412  21.167  1.00  0.00    +0.010 A 
ATOM     18  C   UNL     1      48.259  56.063  19.751  1.00  0.00    +0.010 A 
ATOM     19  C   UNL     1      49.589  57.550  21.708  1.00  0.00    +0.001 A 
ATOM     20  C   UNL     1      47.661  57.203  20.296  1.00  0.00    +0.001 A 
ATOM     21  C   UNL     1      48.324  57.942  21.275  1.00  0.00    +0.000 A 
ENDBRANCH  14  16
BRANCH  15  22
ATOM     22  N   UNL     1      51.938  52.944  19.758  1.00  0.00    -0.229 N 
ATOM     23  C   UNL     1      52.146  51.864  20.586  1.00  0.00    +0.332 C 
ATOM     24  O   UNL     1      51.885  51.783  21.780  1.00  0.00    -0.247 OA
ATOM     25  N   UNL     1      52.707  50.807  19.926  1.00  0.00    -0.350 N 
ATOM     26  H   UNL     1      51.936  52.766  18.760  1.00  0.00    +0.195 HD
ATOM     27  H   UNL     1      53.001  50.070  20.552  1.00  0.00    +0.161 HD
ATOM     28  H   UNL     1      53.384  51.030  19.201  1.00  0.00    +0.161 HD
ENDBRANCH  15  22
ENDBRANCH   1  14
TORSDOF 6
ENDMDL
MODEL 2
REMARK VINA RESULT:    -9.257      1.489      2.042
REMARK INTER + INTRA:         -13.758
REMARK INTER:                 -12.658
REMARK INTRA:                  -1.100
REMARK UNBOUND:                -1.255
REMARK SMILES C/C(OC/C(=N\NC(N)=O)c1ccccc1)=C(/C#N)c1ccccc1
REMARK SMILES IDX 4 1 3 2 2 3 17 4 18 5 19 6 1 7 20 8 21 9 25 10 22 11 24 12
REMARK SMILES IDX 23 13 5 14 6 15 11 16 12 17 16 18 13 19 15 20 14 21 7 22
REMARK SMILES IDX 8 23 10 24 9 25
REMARK H PARENT 7 26 9 27 9 28
ROOT
ATOM      1  C   UNL     1      49.881  52.449  19.457  1.00  0.00    +0.287 C 
ENDROOT
BRANCH   1   2
ATOM      2  O   UNL     1      50.028  51.939  18.130  1.00  0.00    -0.490 OA
BRANCH   2   3
ATOM      3  C   UNL     1      49.133  50.908  17.843  1.00  0.00    +0.112 C 
ATOM      4  C   UNL     1      48.090  51.134  17.012  1.00  0.00    +0.097 C 
ATOM      5  C   UNL     1      47.873  52.435  16.462  1.00  0.00    +0.103 C 
ATOM      6  N   UNL     1      47.735  53.506  16.032  1.00  0.00    -0.192 NA
ATOM      7  C   UNL     1      49.507  49.558  18.402  1.00  0.00    +0.088 C 
BRANCH   4   8
ATOM      8  C   UNL     1      47.138  50.071  16.647  1.00  0.00    -0.004 A 
ATOM      9  C   UNL     1      47.329  49.324  15.476  1.00  0.00    +0.009 A 
ATOM     10  C   UNL     1      46.032  49.796  17.464  1.00  0.00    +0.009 A 
ATOM     11  C   UNL     1      46.428  48.314  15.132  1.00  0.00    +0.001 A 
ATOM     12  C   UNL     1      45.134  48.786  17.115  1.00  0.00    +0.001 A 
ATOM     13  C   UNL     1      45.333  48.045  15.951  1.00  0.00    +0.000 A 
ENDBRANCH   4   8
ENDBRANCH   2   3
ENDBRANCH   1   2
BRANCH   1  14
ATOM     14  C   UNL     1      51.039  53.354  19.907  1.00  0.00    +0.105 C 
ATOM     15  N   UNL     1      52.307  53.114  19.731  1.00  0.00    -0.172 NA
BRANCH  14  16
ATOM     16  C   UNL     1      50.673  54.654  20.558  1.00  0.00    +0.001 A 
ATOM     17  C   UNL     1      51.533  55.189  21.528  1.00  0.00    +0.010 A 
ATOM     18  C   UNL     1      49.510  55.353  20.210  1.00  0.00    +0.010 A 
ATOM     19  C   UNL     1      51.222  56.396  22.158  1.00  0.00    +0.001 A 
ATOM     20  C   UNL     1      49.203  56.561  20.843  1.00  0.00    +0.001 A 
ATOM     21  C   UNL     1      50.056  57.079  21.817  1.00  0.00    +0.000 A 
ENDBRANCH  14  16
BRANCH  15  22
ATOM     22  N   UNL     1      52.684  51.942  19.157  1.00  0.00    -0.229 N 
ATOM     23  C   UNL     1      52.829  50.807  19.923  1.00  0.00    +0.332 C 
ATOM     24  O   UNL     1      52.731  50.716  21.141  1.00  0.00    -0.247 OA
ATOM     25  N   UNL     1      53.110  49.705  19.167  1.00  0.00    -0.350 N 
ATOM     26  H   UNL     1      52.510  51.810  18.167  1.00  0.00    +0.195 HD
ATOM     27  H   UNL     1      53.366  48.903  19.727  1.00  0.00    +0.161 HD
ATOM     28  H   UNL     1      53.704  49.850  18.354  1.00  0.00    +0.161 HD
ENDBRANCH  15  22
ENDBRANCH   1  14
TORSDOF 6
ENDMDL
MODEL 3
REMARK VINA RESULT:    -8.803      1.478      7.179
REMARK INTER + INTRA:         -13.146
REMARK INTER:                 -12.472
REMARK INTRA:                  -0.674
REMARK UNBOUND:                -1.255
REMARK SMILES C/C(OC/C(=N\NC(N)=O)c1ccccc1)=C(/C#N)c1ccccc1
REMARK SMILES IDX 4 1 3 2 2 3 17 4 18 5 19 6 1 7 20 8 21 9 25 10 22 11 24 12
REMARK SMILES IDX 23 13 5 14 6 15 11 16 12 17 16 18 13 19 15 20 14 21 7 22
REMARK SMILES IDX 8 23 10 24 9 25
REMARK H PARENT 7 26 9 27 9 28
ROOT
ATOM      1  C   UNL     1      48.536  52.452  17.609  1.00  0.00    +0.287 C 
ENDROOT
BRANCH   1   2
ATOM      2  O   UNL     1      49.630  53.326  17.897  1.00  0.00    -0.490 OA
BRANCH   2   3
ATOM      3  C   UNL     1      49.224  54.533  18.467  1.00  0.00    +0.112 C 
ATOM      4  C   UNL     1      49.472  54.777  19.774  1.00  0.00    +0.097 C 
ATOM      5  C   UNL     1      50.108  53.788  20.587  1.00  0.00    +0.103 C 
ATOM      6  N   UNL     1      50.631  52.959  21.210  1.00  0.00    -0.192 NA
ATOM      7  C   UNL     1      48.646  55.537  17.502  1.00  0.00    +0.088 C 
BRANCH   4   8
ATOM      8  C   UNL     1      49.098  56.049  20.415  1.00  0.00    -0.004 A 
ATOM      9  C   UNL     1      49.983  56.681  21.300  1.00  0.00    +0.009 A 
ATOM     10  C   UNL     1      47.855  56.641  20.149  1.00  0.00    +0.009 A 
ATOM     11  C   UNL     1      49.630  57.888  21.905  1.00  0.00    +0.001 A 
ATOM     12  C   UNL     1      47.506  57.849  20.757  1.00  0.00    +0.001 A 
ATOM     13  C   UNL     1      48.395  58.471  21.634  1.00  0.00    +0.000 A 
ENDBRANCH   4   8
ENDBRANCH   2   3
ENDBRANCH   1   2
BRANCH   1  14
ATOM     14  C   UNL     1      48.948  50.982  17.424  1.00  0.00    +0.105 C 
ATOM     15  N   UNL     1      50.017  50.422  17.912  1.00  0.00    -0.172 NA
BRANCH  14  16
ATOM     16  C   UNL     1      48.006  50.104  16.656  1.00  0.00    +0.001 A 
ATOM     17  C   UNL     1      48.376  49.673  15.374  1.00  0.00    +0.010 A 
ATOM     18  C   UNL     1      46.780  49.689  17.192  1.00  0.00    +0.010 A 
ATOM     19  C   UNL     1      47.523  48.857  14.630  1.00  0.00    +0.001 A 
ATOM     20  C   UNL     1      45.928  48.871  16.443  1.00  0.00    +0.001 A 
ATOM     21  C   UNL     1      46.299  48.459  15.163  1.00  0.00    +0.000 A 
ENDBRANCH  14  16
BRANCH  15  22
ATOM     22  N   UNL     1      50.905  51.184  18.603  1.00  0.00    -0.229 N 
ATOM     23  C   UNL     1      52.203  51.314  18.161  1.00  0.00    +0.332 C 
ATOM     24  O   UNL     1      52.723  50.743  17.211  1.00  0.00    -0.247 OA
ATOM     25  N   UNL     1      52.920  52.196  18.918  1.00  0.00    -0.350 N 
ATOM     26  H   UNL     1      50.547  51.918  19.204  1.00  0.00    +0.195 HD
ATOM     27  H   UNL     1      53.907  52.184  18.697  1.00  0.00    +0.161 HD
ATOM     28  H   UNL     1      52.718  52.211  19.914  1.00  0.00    +0.161 HD
ENDBRANCH  15  22
ENDBRANCH   1  14
TORSDOF 6
ENDMDL
MODEL 4
REMARK VINA RESULT:    -8.528      1.862      7.232
REMARK INTER + INTRA:         -12.774
REMARK INTER:                 -12.247
REMARK INTRA:                  -0.526
REMARK UNBOUND:                -1.255
REMARK SMILES C/C(OC/C(=N\NC(N)=O)c1ccccc1)=C(/C#N)c1ccccc1
REMARK SMILES IDX 4 1 3 2 2 3 17 4 18 5 19 6 1 7 20 8 21 9 25 10 22 11 24 12
REMARK SMILES IDX 23 13 5 14 6 15 11 16 12 17 16 18 13 19 15 20 14 21 7 22
REMARK SMILES IDX 8 23 10 24 9 25
REMARK H PARENT 7 26 9 27 9 28
ROOT
ATOM      1  C   UNL     1      49.347  52.159  18.198  1.00  0.00    +0.287 C 
ENDROOT
BRANCH   1   2
ATOM      2  O   UNL     1      50.198  53.039  18.936  1.00  0.00    -0.490 OA
BRANCH   2   3
ATOM      3  C   UNL     1      49.574  54.240  19.274  1.00  0.00    +0.112 C 
ATOM      4  C   UNL     1      49.941  54.894  20.400  1.00  0.00    +0.097 C 
ATOM      5  C   UNL     1      50.932  54.340  21.269  1.00  0.00    +0.103 C 
ATOM      6  N   UNL     1      51.744  53.858  21.945  1.00  0.00    -0.192 NA
ATOM      7  C   UNL     1      48.612  54.777  18.245  1.00  0.00    +0.088 C 
BRANCH   4   8
ATOM      8  C   UNL     1      49.341  56.184  20.784  1.00  0.00    -0.004 A 
ATOM      9  C   UNL     1      50.011  57.037  21.672  1.00  0.00    +0.009 A 
ATOM     10  C   UNL     1      48.096  56.571  20.267  1.00  0.00    +0.009 A 
ATOM     11  C   UNL     1      49.444  58.261  22.033  1.00  0.00    +0.001 A 
ATOM     12  C   UNL     1      47.533  57.795  20.632  1.00  0.00    +0.001 A 
ATOM     13  C   UNL     1      48.208  58.640  21.513  1.00  0.00    +0.000 A 
ENDBRANCH   4   8
ENDBRANCH   2   3
ENDBRANCH   1   2
BRANCH   1  14
ATOM     14  C   UNL     1      50.018  50.836  17.797  1.00  0.00    +0.105 C 
ATOM     15  N   UNL     1      50.700  50.056  18.586  1.00  0.00    -0.172 NA
BRANCH  14  16
ATOM     16  C   UNL     1      49.827  50.379  16.382  1.00  0.00    +0.001 A 
ATOM     17  C   UNL     1      48.531  50.354  15.848  1.00  0.00    +0.010 A 
ATOM     18  C   UNL     1      50.908  49.995  15.577  1.00  0.00    +0.010 A 
ATOM     19  C   UNL     1      48.316  49.931  14.536  1.00  0.00    +0.001 A 
ATOM     20  C   UNL     1      50.688  49.572  14.263  1.00  0.00    +0.001 A 
ATOM     21  C   UNL     1      49.394  49.537  13.745  1.00  0.00    +0.000 A 
ENDBRANCH  14  16
BRANCH  15  22
ATOM     22  N   UNL     1      50.909  50.439  19.873  1.00  0.00    -0.229 N 
ATOM     23  C   UNL     1      52.172  50.381  20.420  1.00  0.00    +0.332 C 
ATOM     24  O   UNL     1      53.186  49.935  19.898  1.00  0.00    -0.247 OA
ATOM     25  N   UNL     1      52.212  50.900  21.682  1.00  0.00    -0.350 N 
ATOM     26  H   UNL     1      50.251  51.082  20.299  1.00  0.00    +0.195 HD
ATOM     27  H   UNL     1      53.093  50.726  22.146  1.00  0.00    +0.161 HD
ATOM     28  H   UNL     1      51.396  50.738  22.268  1.00  0.00    +0.161 HD
ENDBRANCH  15  22
ENDBRANCH   1  14
TORSDOF 6
ENDMDL
MODEL 5
REMARK VINA RESULT:    -8.499      2.533      3.848
REMARK INTER + INTRA:         -12.735
REMARK INTER:                 -11.667
REMARK INTRA:                  -1.068
REMARK UNBOUND:                -1.255
REMARK SMILES C/C(OC/C(=N\NC(N)=O)c1ccccc1)=C(/C#N)c1ccccc1
REMARK SMILES IDX 4 1 3 2 2 3 17 4 18 5 19 6 1 7 20 8 21 9 25 10 22 11 24 12
REMARK SMILES IDX 23 13 5 14 6 15 11 16 12 17 16 18 13 19 15 20 14 21 7 22
REMARK SMILES IDX 8 23 10 24 9 25
REMARK H PARENT 7 26 9 27 9 28
ROOT
ATOM      1  C   UNL     1      48.631  53.968  18.874  1.00  0.00    +0.287 C 
ENDROOT
BRANCH   1   2
ATOM      2  O   UNL     1      49.311  53.172  17.901  1.00  0.00    -0.490 OA
BRANCH   2   3
ATOM      3  C   UNL     1      48.452  52.333  17.190  1.00  0.00    +0.112 C 
ATOM      4  C   UNL     1      48.466  51.001  17.424  1.00  0.00    +0.097 C 
ATOM      5  C   UNL     1      49.387  50.441  18.364  1.00  0.00    +0.103 C 
ATOM      6  N   UNL     1      50.148  50.028  19.138  1.00  0.00    -0.192 NA
ATOM      7  C   UNL     1      47.463  53.035  16.294  1.00  0.00    +0.088 C 
BRANCH   4   8
ATOM      8  C   UNL     1      47.555  50.076  16.728  1.00  0.00    -0.004 A 
ATOM      9  C   UNL     1      46.320  49.739  17.300  1.00  0.00    +0.009 A 
ATOM     10  C   UNL     1      47.912  49.523  15.491  1.00  0.00    +0.009 A 
ATOM     11  C   UNL     1      45.455  48.866  16.638  1.00  0.00    +0.001 A 
ATOM     12  C   UNL     1      47.044  48.649  14.833  1.00  0.00    +0.001 A 
ATOM     13  C   UNL     1      45.816  48.322  15.407  1.00  0.00    +0.000 A 
ENDBRANCH   4   8
ENDBRANCH   2   3
ENDBRANCH   1   2
BRANCH   1  14
ATOM     14  C   UNL     1      49.315  55.313  19.164  1.00  0.00    +0.105 C 
ATOM     15  N   UNL     1      49.206  56.395  18.445  1.00  0.00    -0.172 NA
BRANCH  14  16
ATOM     16  C   UNL     1      50.138  55.403  20.414  1.00  0.00    +0.001 A 
ATOM     17  C   UNL     1      50.197  56.625  21.098  1.00  0.00    +0.010 A 
ATOM     18  C   UNL     1      50.831  54.297  20.923  1.00  0.00    +0.010 A 
ATOM     19  C   UNL     1      50.956  56.745  22.263  1.00  0.00    +0.001 A 
ATOM     20  C   UNL     1      51.590  54.422  22.090  1.00  0.00    +0.001 A 
ATOM     21  C   UNL     1      51.654  55.645  22.757  1.00  0.00    +0.000 A 
ENDBRANCH  14  16
BRANCH  15  22
ATOM     22  N   UNL     1      48.481  56.354  17.297  1.00  0.00    -0.229 N 
ATOM     23  C   UNL     1      47.747  57.449  16.898  1.00  0.00    +0.332 C 
ATOM     24  O   UNL     1      47.588  58.498  17.510  1.00  0.00    -0.247 OA
ATOM     25  N   UNL     1      47.168  57.265  15.675  1.00  0.00    -0.350 N 
ATOM     26  H   UNL     1      48.752  55.694  16.577  1.00  0.00    +0.195 HD
ATOM     27  H   UNL     1      46.509  57.996  15.443  1.00  0.00    +0.161 HD
ATOM     28  H   UNL     1      46.838  56.327  15.464  1.00  0.00    +0.161 HD
ENDBRANCH  15  22
ENDBRANCH   1  14
TORSDOF 6
ENDMDL
