MODEL 1
REMARK VINA RESULT:    -7.162      0.000      0.000
REMARK INTER + INTRA:         -14.243
REMARK INTER:                 -12.605
REMARK INTRA:                  -1.639
REMARK UNBOUND:                -1.639
REMARK SMILES O=C1c2ccccc2C(=O)c2c(NCCOCCO)ccc(NCCOCCO)c21
REMARK SMILES IDX 5 1 6 2 7 3 8 4 3 5 4 6 2 7 1 8 30 9 22 10 21 11 20 12 12 13
REMARK SMILES IDX 11 14 9 15 10 16 23 17 24 19 25 20 26 21 27 22 28 23 29 24
REMARK SMILES IDX 13 26 14 28 15 29 16 30 17 31 18 32 19 33
REMARK H PARENT 23 18 29 25 13 27 19 34
ROOT
ATOM      1  C   UNL     1      47.778  56.854  16.341  1.00  0.00    +0.001 A 
ATOM      2  C   UNL     1      47.170  55.897  15.532  1.00  0.00    +0.001 A 
ATOM      3  C   UNL     1      47.385  54.539  15.774  1.00  0.00    +0.013 A 
ATOM      4  C   UNL     1      48.217  54.135  16.830  1.00  0.00    +0.034 A 
ATOM      5  C   UNL     1      48.824  55.089  17.634  1.00  0.00    +0.034 A 
ATOM      6  C   UNL     1      48.603  56.452  17.393  1.00  0.00    +0.013 A 
ATOM      7  C   UNL     1      49.695  54.676  18.748  1.00  0.00    +0.196 C 
ATOM      8  O   UNL     1      50.129  55.537  19.512  1.00  0.00    -0.288 OA
ATOM      9  C   UNL     1      50.022  53.236  18.946  1.00  0.00    +0.059 A 
ATOM     10  C   UNL     1      50.945  52.849  19.954  1.00  0.00    +0.046 A 
ATOM     11  C   UNL     1      51.209  51.485  20.112  1.00  0.00    +0.028 A 
ATOM     12  C   UNL     1      50.556  50.523  19.341  1.00  0.00    +0.028 A 
ATOM     13  C   UNL     1      49.643  50.889  18.346  1.00  0.00    +0.046 A 
ATOM     14  C   UNL     1      49.378  52.267  18.151  1.00  0.00    +0.059 A 
ATOM     15  C   UNL     1      48.443  52.702  17.077  1.00  0.00    +0.196 C 
ATOM     16  O   UNL     1      47.864  51.882  16.370  1.00  0.00    -0.288 OA
ENDROOT
BRANCH  10  17
ATOM     17  N   UNL     1      51.677  53.801  20.700  1.00  0.00    -0.382 N 
ATOM     18  H   UNL     1      51.444  54.747  20.357  1.00  0.00    +0.160 HD
BRANCH  17  19
ATOM     19  C   UNL     1      51.573  53.731  22.165  1.00  0.00    +0.141 C 
BRANCH  19  20
ATOM     20  C   UNL     1      51.608  55.136  22.789  1.00  0.00    +0.181 C 
BRANCH  20  21
ATOM     21  O   UNL     1      52.604  55.996  22.221  1.00  0.00    -0.377 OA
BRANCH  21  22
ATOM     22  C   UNL     1      52.085  57.262  21.790  1.00  0.00    +0.188 C 
BRANCH  22  23
ATOM     23  C   UNL     1      53.246  58.254  21.779  1.00  0.00    +0.184 C 
BRANCH  23  24
ATOM     24  O   UNL     1      54.327  57.744  22.561  1.00  0.00    -0.394 OA
ATOM     25  H   UNL     1      53.904  57.278  23.310  1.00  0.00    +0.210 HD
ENDBRANCH  23  24
ENDBRANCH  22  23
ENDBRANCH  21  22
ENDBRANCH  20  21
ENDBRANCH  19  20
ENDBRANCH  17  19
ENDBRANCH  10  17
BRANCH  13  26
ATOM     26  N   UNL     1      48.993  49.872  17.609  1.00  0.00    -0.382 N 
ATOM     27  H   UNL     1      49.653  49.503  16.905  1.00  0.00    +0.160 HD
BRANCH  26  28
ATOM     28  C   UNL     1      48.474  48.758  18.425  1.00  0.00    +0.141 C 
BRANCH  28  29
ATOM     29  C   UNL     1      46.939  48.689  18.343  1.00  0.00    +0.181 C 
BRANCH  29  30
ATOM     30  O   UNL     1      46.432  49.122  17.073  1.00  0.00    -0.377 OA
BRANCH  30  31
ATOM     31  C   UNL     1      46.118  48.034  16.192  1.00  0.00    +0.188 C 
BRANCH  31  32
ATOM     32  C   UNL     1      46.815  48.311  14.859  1.00  0.00    +0.184 C 
BRANCH  32  33
ATOM     33  O   UNL     1      47.676  49.448  14.989  1.00  0.00    -0.394 OA
ATOM     34  H   UNL     1      48.337  49.181  15.658  1.00  0.00    +0.210 HD
ENDBRANCH  32  33
ENDBRANCH  31  32
ENDBRANCH  30  31
ENDBRANCH  29  30
ENDBRANCH  28  29
ENDBRANCH  26  28
ENDBRANCH  13  26
TORSDOF 14
ENDMDL
MODEL 2
REMARK VINA RESULT:    -6.697      2.577      7.431
REMARK INTER + INTRA:         -13.426
REMARK INTER:                 -12.671
REMARK INTRA:                  -0.754
REMARK UNBOUND:                -1.639
REMARK SMILES O=C1c2ccccc2C(=O)c2c(NCCOCCO)ccc(NCCOCCO)c21
REMARK SMILES IDX 5 1 6 2 7 3 8 4 3 5 4 6 2 7 1 8 30 9 22 10 21 11 20 12 12 13
REMARK SMILES IDX 11 14 9 15 10 16 23 17 24 19 25 20 26 21 27 22 28 23 29 24
REMARK SMILES IDX 13 26 14 28 15 29 16 30 17 31 18 32 19 33
REMARK H PARENT 23 18 29 25 13 27 19 34
ROOT
ATOM      1  C   UNL     1      51.695  55.202  22.890  1.00  0.00    +0.001 A 
ATOM      2  C   UNL     1      51.286  56.464  22.465  1.00  0.00    +0.001 A 
ATOM      3  C   UNL     1      50.539  56.598  21.293  1.00  0.00    +0.013 A 
ATOM      4  C   UNL     1      50.202  55.463  20.540  1.00  0.00    +0.034 A 
ATOM      5  C   UNL     1      50.612  54.207  20.963  1.00  0.00    +0.034 A 
ATOM      6  C   UNL     1      51.358  54.073  22.142  1.00  0.00    +0.013 A 
ATOM      7  C   UNL     1      50.259  53.008  20.181  1.00  0.00    +0.196 C 
ATOM      8  O   UNL     1      50.538  51.901  20.637  1.00  0.00    -0.288 OA
ATOM      9  C   UNL     1      49.561  53.149  18.873  1.00  0.00    +0.059 A 
ATOM     10  C   UNL     1      49.316  52.002  18.072  1.00  0.00    +0.046 A 
ATOM     11  C   UNL     1      48.644  52.182  16.858  1.00  0.00    +0.028 A 
ATOM     12  C   UNL     1      48.183  53.436  16.461  1.00  0.00    +0.028 A 
ATOM     13  C   UNL     1      48.415  54.574  17.241  1.00  0.00    +0.046 A 
ATOM     14  C   UNL     1      49.115  54.421  18.463  1.00  0.00    +0.059 A 
ATOM     15  C   UNL     1      49.417  55.612  19.303  1.00  0.00    +0.196 C 
ATOM     16  O   UNL     1      49.040  56.733  18.974  1.00  0.00    -0.288 OA
ENDROOT
BRANCH  10  17
ATOM     17  N   UNL     1      49.834  50.731  18.411  1.00  0.00    -0.382 N 
ATOM     18  H   UNL     1      49.855  50.641  19.440  1.00  0.00    +0.160 HD
BRANCH  17  19
ATOM     19  C   UNL     1      49.198  49.558  17.792  1.00  0.00    +0.141 C 
BRANCH  19  20
ATOM     20  C   UNL     1      48.270  48.843  18.789  1.00  0.00    +0.181 C 
BRANCH  20  21
ATOM     21  O   UNL     1      46.883  48.909  18.437  1.00  0.00    -0.377 OA
BRANCH  21  22
ATOM     22  C   UNL     1      46.305  47.626  18.158  1.00  0.00    +0.188 C 
BRANCH  22  23
ATOM     23  C   UNL     1      44.806  47.730  18.432  1.00  0.00    +0.184 C 
BRANCH  23  24
ATOM     24  O   UNL     1      44.366  46.588  19.169  1.00  0.00    -0.394 OA
ATOM     25  H   UNL     1      44.346  46.879  20.103  1.00  0.00    +0.210 HD
ENDBRANCH  23  24
ENDBRANCH  22  23
ENDBRANCH  21  22
ENDBRANCH  20  21
ENDBRANCH  19  20
ENDBRANCH  17  19
ENDBRANCH  10  17
BRANCH  13  26
ATOM     26  N   UNL     1      47.904  55.818  16.800  1.00  0.00    -0.382 N 
ATOM     27  H   UNL     1      48.640  56.534  16.916  1.00  0.00    +0.160 HD
BRANCH  26  28
ATOM     28  C   UNL     1      47.426  55.827  15.406  1.00  0.00    +0.141 C 
BRANCH  28  29
ATOM     29  C   UNL     1      48.119  56.939  14.599  1.00  0.00    +0.181 C 
BRANCH  29  30
ATOM     30  O   UNL     1      47.266  57.510  13.596  1.00  0.00    -0.377 OA
BRANCH  30  31
ATOM     31  C   UNL     1      45.890  57.139  13.751  1.00  0.00    +0.188 C 
BRANCH  31  32
ATOM     32  C   UNL     1      45.339  56.835  12.357  1.00  0.00    +0.184 C 
BRANCH  32  33
ATOM     33  O   UNL     1      44.523  55.659  12.405  1.00  0.00    -0.394 OA
ATOM     34  H   UNL     1      43.631  55.987  12.636  1.00  0.00    +0.210 HD
ENDBRANCH  32  33
ENDBRANCH  31  32
ENDBRANCH  30  31
ENDBRANCH  29  30
ENDBRANCH  28  29
ENDBRANCH  26  28
ENDBRANCH  13  26
TORSDOF 14
ENDMDL
MODEL 3
REMARK VINA RESULT:    -6.630      2.971      6.490
REMARK INTER + INTRA:         -13.307
REMARK INTER:                 -12.168
REMARK INTRA:                  -1.139
REMARK UNBOUND:                -1.639
REMARK SMILES O=C1c2ccccc2C(=O)c2c(NCCOCCO)ccc(NCCOCCO)c21
REMARK SMILES IDX 5 1 6 2 7 3 8 4 3 5 4 6 2 7 1 8 30 9 22 10 21 11 20 12 12 13
REMARK SMILES IDX 11 14 9 15 10 16 23 17 24 19 25 20 26 21 27 22 28 23 29 24
REMARK SMILES IDX 13 26 14 28 15 29 16 30 17 31 18 32 19 33
REMARK H PARENT 23 18 29 25 13 27 19 34
ROOT
ATOM      1  C   UNL     1      51.592  55.912  22.516  1.00  0.00    +0.001 A 
ATOM      2  C   UNL     1      51.106  57.148  22.092  1.00  0.00    +0.001 A 
ATOM      3  C   UNL     1      50.304  57.229  20.952  1.00  0.00    +0.013 A 
ATOM      4  C   UNL     1      49.989  56.068  20.230  1.00  0.00    +0.034 A 
ATOM      5  C   UNL     1      50.475  54.839  20.651  1.00  0.00    +0.034 A 
ATOM      6  C   UNL     1      51.276  54.758  21.798  1.00  0.00    +0.013 A 
ATOM      7  C   UNL     1      50.147  53.614  19.901  1.00  0.00    +0.196 C 
ATOM      8  O   UNL     1      50.496  52.527  20.359  1.00  0.00    -0.288 OA
ATOM      9  C   UNL     1      49.387  53.702  18.623  1.00  0.00    +0.059 A 
ATOM     10  C   UNL     1      49.162  52.533  17.848  1.00  0.00    +0.046 A 
ATOM     11  C   UNL     1      48.431  52.663  16.662  1.00  0.00    +0.028 A 
ATOM     12  C   UNL     1      47.895  53.888  16.269  1.00  0.00    +0.028 A 
ATOM     13  C   UNL     1      48.107  55.048  17.023  1.00  0.00    +0.046 A 
ATOM     14  C   UNL     1      48.865  54.945  18.215  1.00  0.00    +0.059 A 
ATOM     15  C   UNL     1      49.146  56.162  19.026  1.00  0.00    +0.196 C 
ATOM     16  O   UNL     1      48.703  57.259  18.699  1.00  0.00    -0.288 OA
ENDROOT
BRANCH  10  17
ATOM     17  N   UNL     1      49.754  51.292  18.181  1.00  0.00    -0.382 N 
ATOM     18  H   UNL     1      50.016  51.304  19.179  1.00  0.00    +0.160 HD
BRANCH  17  19
ATOM     19  C   UNL     1      48.996  50.076  17.849  1.00  0.00    +0.141 C 
BRANCH  19  20
ATOM     20  C   UNL     1      49.365  48.920  18.795  1.00  0.00    +0.181 C 
BRANCH  20  21
ATOM     21  O   UNL     1      49.947  49.350  20.032  1.00  0.00    -0.377 OA
BRANCH  21  22
ATOM     22  C   UNL     1      51.200  48.717  20.322  1.00  0.00    +0.188 C 
BRANCH  22  23
ATOM     23  C   UNL     1      52.309  49.673  19.886  1.00  0.00    +0.184 C 
BRANCH  23  24
ATOM     24  O   UNL     1      52.785  50.410  21.013  1.00  0.00    -0.394 OA
ATOM     25  H   UNL     1      53.657  50.019  21.225  1.00  0.00    +0.210 HD
ENDBRANCH  23  24
ENDBRANCH  22  23
ENDBRANCH  21  22
ENDBRANCH  20  21
ENDBRANCH  19  20
ENDBRANCH  17  19
ENDBRANCH  10  17
BRANCH  13  26
ATOM     26  N   UNL     1      47.520  56.260  16.588  1.00  0.00    -0.382 N 
ATOM     27  H   UNL     1      47.725  56.992  17.288  1.00  0.00    +0.160 HD
BRANCH  26  28
ATOM     28  C   UNL     1      47.964  56.716  15.258  1.00  0.00    +0.141 C 
BRANCH  28  29
ATOM     29  C   UNL     1      46.781  57.274  14.449  1.00  0.00    +0.181 C 
BRANCH  29  30
ATOM     30  O   UNL     1      45.871  56.252  14.020  1.00  0.00    -0.377 OA
BRANCH  30  31
ATOM     31  C   UNL     1      45.134  56.612  12.843  1.00  0.00    +0.188 C 
BRANCH  31  32
ATOM     32  C   UNL     1      46.119  57.258  11.867  1.00  0.00    +0.184 C 
BRANCH  32  33
ATOM     33  O   UNL     1      46.094  56.556  10.619  1.00  0.00    -0.394 OA
ATOM     34  H   UNL     1      46.974  56.719  10.226  1.00  0.00    +0.210 HD
ENDBRANCH  32  33
ENDBRANCH  31  32
ENDBRANCH  30  31
ENDBRANCH  29  30
ENDBRANCH  28  29
ENDBRANCH  26  28
ENDBRANCH  13  26
TORSDOF 14
ENDMDL
MODEL 4
REMARK VINA RESULT:    -6.616      2.437      7.883
REMARK INTER + INTRA:         -13.282
REMARK INTER:                 -12.353
REMARK INTRA:                  -0.929
REMARK UNBOUND:                -1.639
REMARK SMILES O=C1c2ccccc2C(=O)c2c(NCCOCCO)ccc(NCCOCCO)c21
REMARK SMILES IDX 5 1 6 2 7 3 8 4 3 5 4 6 2 7 1 8 30 9 22 10 21 11 20 12 12 13
REMARK SMILES IDX 11 14 9 15 10 16 23 17 24 19 25 20 26 21 27 22 28 23 29 24
REMARK SMILES IDX 13 26 14 28 15 29 16 30 17 31 18 32 19 33
REMARK H PARENT 23 18 29 25 13 27 19 34
ROOT
ATOM      1  C   UNL     1      48.341  49.635  15.801  1.00  0.00    +0.001 A 
ATOM      2  C   UNL     1      49.056  49.114  16.878  1.00  0.00    +0.001 A 
ATOM      3  C   UNL     1      49.489  49.959  17.901  1.00  0.00    +0.013 A 
ATOM      4  C   UNL     1      49.209  51.333  17.846  1.00  0.00    +0.034 A 
ATOM      5  C   UNL     1      48.499  51.851  16.772  1.00  0.00    +0.034 A 
ATOM      6  C   UNL     1      48.061  51.001  15.747  1.00  0.00    +0.013 A 
ATOM      7  C   UNL     1      48.196  53.291  16.707  1.00  0.00    +0.196 C 
ATOM      8  O   UNL     1      47.472  53.704  15.804  1.00  0.00    -0.288 OA
ATOM      9  C   UNL     1      48.749  54.217  17.735  1.00  0.00    +0.059 A 
ATOM     10  C   UNL     1      48.545  55.618  17.612  1.00  0.00    +0.046 A 
ATOM     11  C   UNL     1      49.070  56.446  18.609  1.00  0.00    +0.028 A 
ATOM     12  C   UNL     1      49.734  55.921  19.716  1.00  0.00    +0.028 A 
ATOM     13  C   UNL     1      49.941  54.544  19.852  1.00  0.00    +0.046 A 
ATOM     14  C   UNL     1      49.440  53.686  18.842  1.00  0.00    +0.059 A 
ATOM     15  C   UNL     1      49.672  52.218  18.927  1.00  0.00    +0.196 C 
ATOM     16  O   UNL     1      50.268  51.725  19.881  1.00  0.00    -0.288 OA
ENDROOT
BRANCH  10  17
ATOM     17  N   UNL     1      47.941  56.186  16.466  1.00  0.00    -0.382 N 
ATOM     18  H   UNL     1      47.131  55.607  16.192  1.00  0.00    +0.160 HD
BRANCH  17  19
ATOM     19  C   UNL     1      47.573  57.608  16.536  1.00  0.00    +0.141 C 
BRANCH  19  20
ATOM     20  C   UNL     1      46.461  57.940  15.526  1.00  0.00    +0.181 C 
BRANCH  20  21
ATOM     21  O   UNL     1      46.894  57.912  14.161  1.00  0.00    -0.377 OA
BRANCH  21  22
ATOM     22  C   UNL     1      45.812  57.863  13.221  1.00  0.00    +0.188 C 
BRANCH  22  23
ATOM     23  C   UNL     1      45.179  56.477  13.323  1.00  0.00    +0.184 C 
BRANCH  23  24
ATOM     24  O   UNL     1      46.149  55.532  13.775  1.00  0.00    -0.394 OA
ATOM     25  H   UNL     1      46.896  55.611  13.147  1.00  0.00    +0.210 HD
ENDBRANCH  23  24
ENDBRANCH  22  23
ENDBRANCH  21  22
ENDBRANCH  20  21
ENDBRANCH  19  20
ENDBRANCH  17  19
ENDBRANCH  10  17
BRANCH  13  26
ATOM     26  N   UNL     1      50.602  54.064  21.007  1.00  0.00    -0.382 N 
ATOM     27  H   UNL     1      50.703  53.039  20.925  1.00  0.00    +0.160 HD
BRANCH  26  28
ATOM     28  C   UNL     1      51.923  54.668  21.256  1.00  0.00    +0.141 C 
BRANCH  28  29
ATOM     29  C   UNL     1      51.872  55.613  22.470  1.00  0.00    +0.181 C 
BRANCH  29  30
ATOM     30  O   UNL     1      52.866  56.646  22.410  1.00  0.00    -0.377 OA
BRANCH  30  31
ATOM     31  C   UNL     1      53.052  57.172  21.089  1.00  0.00    +0.188 C 
BRANCH  31  32
ATOM     32  C   UNL     1      53.097  58.696  21.207  1.00  0.00    +0.184 C 
BRANCH  32  33
ATOM     33  O   UNL     1      53.310  59.070  22.572  1.00  0.00    -0.394 OA
ATOM     34  H   UNL     1      53.706  59.963  22.525  1.00  0.00    +0.210 HD
ENDBRANCH  32  33
ENDBRANCH  31  32
ENDBRANCH  30  31
ENDBRANCH  29  30
ENDBRANCH  28  29
ENDBRANCH  26  28
ENDBRANCH  13  26
TORSDOF 14
ENDMDL
MODEL 5
REMARK VINA RESULT:    -6.270      4.904      8.280
REMARK INTER + INTRA:         -12.674
REMARK INTER:                 -11.132
REMARK INTRA:                  -1.542
REMARK UNBOUND:                -1.639
REMARK SMILES O=C1c2ccccc2C(=O)c2c(NCCOCCO)ccc(NCCOCCO)c21
REMARK SMILES IDX 5 1 6 2 7 3 8 4 3 5 4 6 2 7 1 8 30 9 22 10 21 11 20 12 12 13
REMARK SMILES IDX 11 14 9 15 10 16 23 17 24 19 25 20 26 21 27 22 28 23 29 24
REMARK SMILES IDX 13 26 14 28 15 29 16 30 17 31 18 32 19 33
REMARK H PARENT 23 18 29 25 13 27 19 34
ROOT
ATOM      1  C   UNL     1      45.395  58.303  12.528  1.00  0.00    +0.001 A 
ATOM      2  C   UNL     1      46.145  57.130  12.500  1.00  0.00    +0.001 A 
ATOM      3  C   UNL     1      46.811  56.700  13.649  1.00  0.00    +0.013 A 
ATOM      4  C   UNL     1      46.729  57.449  14.832  1.00  0.00    +0.034 A 
ATOM      5  C   UNL     1      45.983  58.619  14.859  1.00  0.00    +0.034 A 
ATOM      6  C   UNL     1      45.311  59.047  13.706  1.00  0.00    +0.013 A 
ATOM      7  C   UNL     1      45.886  59.410  16.098  1.00  0.00    +0.196 C 
ATOM      8  O   UNL     1      45.130  60.379  16.124  1.00  0.00    -0.288 OA
ATOM      9  C   UNL     1      46.682  59.022  17.295  1.00  0.00    +0.059 A 
ATOM     10  C   UNL     1      46.670  59.844  18.454  1.00  0.00    +0.046 A 
ATOM     11  C   UNL     1      47.421  59.431  19.559  1.00  0.00    +0.028 A 
ATOM     12  C   UNL     1      48.125  58.228  19.551  1.00  0.00    +0.028 A 
ATOM     13  C   UNL     1      48.145  57.406  18.419  1.00  0.00    +0.046 A 
ATOM     14  C   UNL     1      47.411  57.816  17.278  1.00  0.00    +0.059 A 
ATOM     15  C   UNL     1      47.437  56.991  16.039  1.00  0.00    +0.196 C 
ATOM     16  O   UNL     1      48.060  55.934  15.994  1.00  0.00    -0.288 OA
ENDROOT
BRANCH  10  17
ATOM     17  N   UNL     1      46.027  61.104  18.467  1.00  0.00    -0.382 N 
ATOM     18  H   UNL     1      45.008  60.961  18.379  1.00  0.00    +0.160 HD
BRANCH  17  19
ATOM     19  C   UNL     1      46.339  62.006  19.586  1.00  0.00    +0.141 C 
BRANCH  19  20
ATOM     20  C   UNL     1      45.370  63.200  19.620  1.00  0.00    +0.181 C 
BRANCH  20  21
ATOM     21  O   UNL     1      44.546  63.307  18.453  1.00  0.00    -0.377 OA
BRANCH  21  22
ATOM     22  C   UNL     1      44.757  64.520  17.716  1.00  0.00    +0.188 C 
BRANCH  22  23
ATOM     23  C   UNL     1      45.026  64.133  16.263  1.00  0.00    +0.184 C 
BRANCH  23  24
ATOM     24  O   UNL     1      46.027  63.115  16.209  1.00  0.00    -0.394 OA
ATOM     25  H   UNL     1      46.000  62.778  15.290  1.00  0.00    +0.210 HD
ENDBRANCH  23  24
ENDBRANCH  22  23
ENDBRANCH  21  22
ENDBRANCH  20  21
ENDBRANCH  19  20
ENDBRANCH  17  19
ENDBRANCH  10  17
BRANCH  13  26
ATOM     26  N   UNL     1      48.857  56.185  18.474  1.00  0.00    -0.382 N 
ATOM     27  H   UNL     1      49.853  56.377  18.281  1.00  0.00    +0.160 HD
BRANCH  26  28
ATOM     28  C   UNL     1      48.737  55.461  19.754  1.00  0.00    +0.141 C 
BRANCH  28  29
ATOM     29  C   UNL     1      50.119  55.272  20.405  1.00  0.00    +0.181 C 
BRANCH  29  30
ATOM     30  O   UNL     1      51.152  56.011  19.738  1.00  0.00    -0.377 OA
BRANCH  30  31
ATOM     31  C   UNL     1      52.294  56.257  20.570  1.00  0.00    +0.188 C 
BRANCH  31  32
ATOM     32  C   UNL     1      51.780  56.819  21.897  1.00  0.00    +0.184 C 
BRANCH  32  33
ATOM     33  O   UNL     1      52.315  56.057  22.985  1.00  0.00    -0.394 OA
ATOM     34  H   UNL     1      52.165  55.125  22.731  1.00  0.00    +0.210 HD
ENDBRANCH  32  33
ENDBRANCH  31  32
ENDBRANCH  30  31
ENDBRANCH  29  30
ENDBRANCH  28  29
ENDBRANCH  26  28
ENDBRANCH  13  26
TORSDOF 14
ENDMDL
