MODEL 1
REMARK VINA RESULT:    -6.701      0.000      0.000
REMARK INTER + INTRA:         -10.435
REMARK INTER:                  -9.051
REMARK INTRA:                  -1.384
REMARK UNBOUND:                -1.384
REMARK SMILES COc1ccccc1NC(=O)C1=C(C)NC(=S)N[C@@H]1c1ccc(OC)c(OC)c1
REMARK SMILES IDX 14 1 13 2 12 3 19 4 18 5 16 6 17 7 15 8 10 11 11 12 9 13
REMARK SMILES IDX 8 15 7 16 3 17 6 18 4 19 5 20 2 21 1 22 20 23 21 24 29 25
REMARK SMILES IDX 22 26 26 27 23 28 27 29 28 30 24 31 25 32
REMARK H PARENT 18 9 15 10 9 14
ROOT
ATOM      1  C   UNL     1      46.239  63.126  19.901  1.00  0.00    +0.065 C 
ATOM      2  C   UNL     1      45.959  62.743  18.476  1.00  0.00    +0.025 C 
ATOM      3  C   UNL     1      45.903  61.493  17.985  1.00  0.00    +0.063 C 
ATOM      4  C   UNL     1      45.592  61.191  16.549  1.00  0.00    +0.150 C 
ATOM      5  N   UNL     1      45.502  62.411  15.761  1.00  0.00    -0.351 N 
ATOM      6  C   UNL     1      45.523  63.666  16.272  1.00  0.00    +0.171 C 
ATOM      7  S   UNL     1      45.294  64.994  15.303  1.00  0.00    -0.041 S 
ATOM      8  N   UNL     1      45.751  63.793  17.607  1.00  0.00    -0.336 N 
ATOM      9  H   UNL     1      45.297  62.326  14.772  1.00  0.00    +0.163 HD
ATOM     10  H   UNL     1      45.773  64.744  17.966  1.00  0.00    +0.169 HD
ENDROOT
BRANCH   3  11
ATOM     11  C   UNL     1      46.124  60.320  18.868  1.00  0.00    +0.255 C 
ATOM     12  O   UNL     1      45.279  60.001  19.694  1.00  0.00    -0.269 OA
ATOM     13  N   UNL     1      47.337  59.721  18.629  1.00  0.00    -0.319 N 
ATOM     14  H   UNL     1      47.987  60.170  17.991  1.00  0.00    +0.170 HD
BRANCH  13  15
ATOM     15  C   UNL     1      47.847  58.532  19.198  1.00  0.00    +0.084 A 
ATOM     16  C   UNL     1      48.113  58.381  20.560  1.00  0.00    +0.030 A 
ATOM     17  C   UNL     1      48.072  57.451  18.317  1.00  0.00    +0.142 A 
ATOM     18  C   UNL     1      48.603  57.167  21.049  1.00  0.00    +0.002 A 
ATOM     19  C   UNL     1      48.560  56.240  18.816  1.00  0.00    +0.048 A 
ATOM     20  C   UNL     1      48.825  56.102  20.180  1.00  0.00    +0.004 A 
BRANCH  17  21
ATOM     21  O   UNL     1      47.766  57.694  16.997  1.00  0.00    -0.495 OA
ATOM     22  C   UNL     1      47.895  56.601  16.095  1.00  0.00    +0.278 C 
ENDBRANCH  17  21
ENDBRANCH  13  15
ENDBRANCH   3  11
BRANCH   4  23
ATOM     23  C   UNL     1      44.347  60.338  16.364  1.00  0.00    -0.017 A 
ATOM     24  C   UNL     1      43.125  60.685  16.956  1.00  0.00    +0.010 A 
ATOM     25  C   UNL     1      44.421  59.146  15.625  1.00  0.00    +0.056 A 
ATOM     26  C   UNL     1      41.995  59.878  16.790  1.00  0.00    +0.051 A 
ATOM     27  C   UNL     1      43.299  58.319  15.480  1.00  0.00    +0.161 A 
ATOM     28  C   UNL     1      42.069  58.695  16.049  1.00  0.00    +0.160 A 
BRANCH  27  29
ATOM     29  O   UNL     1      43.323  57.146  14.765  1.00  0.00    -0.493 OA
ATOM     30  C   UNL     1      44.585  56.788  14.212  1.00  0.00    +0.278 C 
ENDBRANCH  27  29
BRANCH  28  31
ATOM     31  O   UNL     1      41.017  57.840  15.836  1.00  0.00    -0.493 OA
ATOM     32  C   UNL     1      40.340  57.338  16.978  1.00  0.00    +0.278 C 
ENDBRANCH  28  31
ENDBRANCH   4  23
TORSDOF 6
ENDMDL
MODEL 2
REMARK VINA RESULT:    -6.686      4.635      8.291
REMARK INTER + INTRA:         -10.415
REMARK INTER:                  -9.809
REMARK INTRA:                  -0.606
REMARK UNBOUND:                -1.384
REMARK SMILES COc1ccccc1NC(=O)C1=C(C)NC(=S)N[C@@H]1c1ccc(OC)c(OC)c1
REMARK SMILES IDX 14 1 13 2 12 3 19 4 18 5 16 6 17 7 15 8 10 11 11 12 9 13
REMARK SMILES IDX 8 15 7 16 3 17 6 18 4 19 5 20 2 21 1 22 20 23 21 24 29 25
REMARK SMILES IDX 22 26 26 27 23 28 27 29 28 30 24 31 25 32
REMARK H PARENT 18 9 15 10 9 14
ROOT
ATOM      1  C   UNL     1      47.859  56.072  16.459  1.00  0.00    +0.065 C 
ATOM      2  C   UNL     1      47.989  56.876  17.721  1.00  0.00    +0.025 C 
ATOM      3  C   UNL     1      48.341  56.406  18.930  1.00  0.00    +0.063 C 
ATOM      4  C   UNL     1      48.472  57.281  20.142  1.00  0.00    +0.150 C 
ATOM      5  N   UNL     1      48.041  58.642  19.859  1.00  0.00    -0.351 N 
ATOM      6  C   UNL     1      47.723  59.113  18.629  1.00  0.00    +0.171 C 
ATOM      7  S   UNL     1      47.356  60.714  18.389  1.00  0.00    -0.041 S 
ATOM      8  N   UNL     1      47.706  58.220  17.603  1.00  0.00    -0.336 N 
ATOM      9  H   UNL     1      48.084  59.322  20.609  1.00  0.00    +0.163 HD
ATOM     10  H   UNL     1      47.454  58.594  16.691  1.00  0.00    +0.169 HD
ENDROOT
BRANCH   3  11
ATOM     11  C   UNL     1      48.652  54.967  19.125  1.00  0.00    +0.255 C 
ATOM     12  O   UNL     1      47.911  54.260  19.793  1.00  0.00    -0.269 OA
ATOM     13  N   UNL     1      49.818  54.606  18.494  1.00  0.00    -0.319 N 
ATOM     14  H   UNL     1      50.391  55.331  18.073  1.00  0.00    +0.170 HD
BRANCH  13  15
ATOM     15  C   UNL     1      50.377  53.314  18.372  1.00  0.00    +0.084 A 
ATOM     16  C   UNL     1      51.548  52.917  19.019  1.00  0.00    +0.030 A 
ATOM     17  C   UNL     1      49.680  52.394  17.559  1.00  0.00    +0.142 A 
ATOM     18  C   UNL     1      52.030  51.615  18.861  1.00  0.00    +0.002 A 
ATOM     19  C   UNL     1      50.169  51.093  17.409  1.00  0.00    +0.048 A 
ATOM     20  C   UNL     1      51.344  50.707  18.059  1.00  0.00    +0.004 A 
BRANCH  17  21
ATOM     21  O   UNL     1      48.531  52.876  16.976  1.00  0.00    -0.495 OA
ATOM     22  C   UNL     1      47.397  52.016  16.980  1.00  0.00    +0.278 C 
ENDBRANCH  17  21
ENDBRANCH  13  15
ENDBRANCH   3  11
BRANCH   4  23
ATOM     23  C   UNL     1      49.867  57.274  20.747  1.00  0.00    -0.017 A 
ATOM     24  C   UNL     1      50.794  58.288  20.469  1.00  0.00    +0.010 A 
ATOM     25  C   UNL     1      50.266  56.206  21.567  1.00  0.00    +0.056 A 
ATOM     26  C   UNL     1      52.078  58.254  21.021  1.00  0.00    +0.051 A 
ATOM     27  C   UNL     1      51.561  56.152  22.098  1.00  0.00    +0.161 A 
ATOM     28  C   UNL     1      52.471  57.194  21.842  1.00  0.00    +0.160 A 
BRANCH  27  29
ATOM     29  O   UNL     1      51.996  55.129  22.907  1.00  0.00    -0.493 OA
ATOM     30  C   UNL     1      51.599  53.821  22.511  1.00  0.00    +0.278 C 
ENDBRANCH  27  29
BRANCH  28  31
ATOM     31  O   UNL     1      53.708  57.073  22.422  1.00  0.00    -0.493 OA
ATOM     32  C   UNL     1      54.800  57.710  21.775  1.00  0.00    +0.278 C 
ENDBRANCH  28  31
ENDBRANCH   4  23
TORSDOF 6
ENDMDL
MODEL 3
REMARK VINA RESULT:    -6.685      0.754      1.844
REMARK INTER + INTRA:         -10.415
REMARK INTER:                  -9.074
REMARK INTRA:                  -1.340
REMARK UNBOUND:                -1.384
REMARK SMILES COc1ccccc1NC(=O)C1=C(C)NC(=S)N[C@@H]1c1ccc(OC)c(OC)c1
REMARK SMILES IDX 14 1 13 2 12 3 19 4 18 5 16 6 17 7 15 8 10 11 11 12 9 13
REMARK SMILES IDX 8 15 7 16 3 17 6 18 4 19 5 20 2 21 1 22 20 23 21 24 29 25
REMARK SMILES IDX 22 26 26 27 23 28 27 29 28 30 24 31 25 32
REMARK H PARENT 18 9 15 10 9 14
ROOT
ATOM      1  C   UNL     1      46.284  63.160  19.891  1.00  0.00    +0.065 C 
ATOM      2  C   UNL     1      46.008  62.761  18.469  1.00  0.00    +0.025 C 
ATOM      3  C   UNL     1      45.959  61.506  17.992  1.00  0.00    +0.063 C 
ATOM      4  C   UNL     1      45.651  61.187  16.558  1.00  0.00    +0.150 C 
ATOM      5  N   UNL     1      45.554  62.399  15.758  1.00  0.00    -0.351 N 
ATOM      6  C   UNL     1      45.568  63.659  16.256  1.00  0.00    +0.171 C 
ATOM      7  S   UNL     1      45.332  64.976  15.274  1.00  0.00    -0.041 S 
ATOM      8  N   UNL     1      45.794  63.801  17.591  1.00  0.00    -0.336 N 
ATOM      9  H   UNL     1      45.351  62.303  14.770  1.00  0.00    +0.163 HD
ATOM     10  H   UNL     1      45.810  64.756  17.940  1.00  0.00    +0.169 HD
ENDROOT
BRANCH   3  11
ATOM     11  C   UNL     1      46.186  60.343  18.887  1.00  0.00    +0.255 C 
ATOM     12  O   UNL     1      45.342  60.026  19.714  1.00  0.00    -0.269 OA
ATOM     13  N   UNL     1      47.404  59.749  18.655  1.00  0.00    -0.319 N 
ATOM     14  H   UNL     1      48.052  60.196  18.014  1.00  0.00    +0.170 HD
BRANCH  13  15
ATOM     15  C   UNL     1      47.920  58.569  19.236  1.00  0.00    +0.084 A 
ATOM     16  C   UNL     1      48.278  58.465  20.581  1.00  0.00    +0.030 A 
ATOM     17  C   UNL     1      48.052  57.448  18.388  1.00  0.00    +0.142 A 
ATOM     18  C   UNL     1      48.768  57.258  21.085  1.00  0.00    +0.002 A 
ATOM     19  C   UNL     1      48.542  56.244  18.902  1.00  0.00    +0.048 A 
ATOM     20  C   UNL     1      48.899  56.152  20.249  1.00  0.00    +0.004 A 
BRANCH  17  21
ATOM     21  O   UNL     1      47.661  57.647  17.083  1.00  0.00    -0.495 OA
ATOM     22  C   UNL     1      47.982  56.621  16.151  1.00  0.00    +0.278 C 
ENDBRANCH  17  21
ENDBRANCH  13  15
ENDBRANCH   3  11
BRANCH   4  23
ATOM     23  C   UNL     1      44.411  60.326  16.381  1.00  0.00    -0.017 A 
ATOM     24  C   UNL     1      44.440  59.140  15.635  1.00  0.00    +0.010 A 
ATOM     25  C   UNL     1      43.188  60.743  16.933  1.00  0.00    +0.056 A 
ATOM     26  C   UNL     1      43.284  58.370  15.469  1.00  0.00    +0.051 A 
ATOM     27  C   UNL     1      42.021  59.991  16.744  1.00  0.00    +0.161 A 
ATOM     28  C   UNL     1      42.070  58.784  16.025  1.00  0.00    +0.160 A 
BRANCH  27  29
ATOM     29  O   UNL     1      40.803  60.357  17.267  1.00  0.00    -0.493 OA
ATOM     30  C   UNL     1      40.834  60.870  18.595  1.00  0.00    +0.278 C 
ENDBRANCH  27  29
BRANCH  28  31
ATOM     31  O   UNL     1      40.886  58.099  15.910  1.00  0.00    -0.493 OA
ATOM     32  C   UNL     1      40.954  56.684  15.817  1.00  0.00    +0.278 C 
ENDBRANCH  28  31
ENDBRANCH   4  23
TORSDOF 6
ENDMDL
MODEL 4
REMARK VINA RESULT:    -5.908      5.323      9.754
REMARK INTER + INTRA:          -9.364
REMARK INTER:                  -8.083
REMARK INTRA:                  -1.281
REMARK UNBOUND:                -1.384
REMARK SMILES COc1ccccc1NC(=O)C1=C(C)NC(=S)N[C@@H]1c1ccc(OC)c(OC)c1
REMARK SMILES IDX 14 1 13 2 12 3 19 4 18 5 16 6 17 7 15 8 10 11 11 12 9 13
REMARK SMILES IDX 8 15 7 16 3 17 6 18 4 19 5 20 2 21 1 22 20 23 21 24 29 25
REMARK SMILES IDX 22 26 26 27 23 28 27 29 28 30 24 31 25 32
REMARK H PARENT 18 9 15 10 9 14
ROOT
ATOM      1  C   UNL     1      47.939  51.796  17.449  1.00  0.00    +0.065 C 
ATOM      2  C   UNL     1      49.341  52.247  17.747  1.00  0.00    +0.025 C 
ATOM      3  C   UNL     1      49.708  53.468  18.172  1.00  0.00    +0.063 C 
ATOM      4  C   UNL     1      51.132  53.836  18.471  1.00  0.00    +0.150 C 
ATOM      5  N   UNL     1      52.042  52.758  18.114  1.00  0.00    -0.351 N 
ATOM      6  C   UNL     1      51.657  51.519  17.721  1.00  0.00    +0.171 C 
ATOM      7  S   UNL     1      52.771  50.319  17.447  1.00  0.00    -0.041 S 
ATOM      8  N   UNL     1      50.325  51.303  17.549  1.00  0.00    -0.336 N 
ATOM      9  H   UNL     1      53.032  52.898  18.271  1.00  0.00    +0.163 HD
ATOM     10  H   UNL     1      50.062  50.369  17.245  1.00  0.00    +0.169 HD
ENDROOT
BRANCH   3  11
ATOM     11  C   UNL     1      48.696  54.531  18.398  1.00  0.00    +0.255 C 
ATOM     12  O   UNL     1      47.832  54.389  19.252  1.00  0.00    -0.269 OA
ATOM     13  N   UNL     1      48.873  55.595  17.547  1.00  0.00    -0.319 N 
ATOM     14  H   UNL     1      49.564  55.520  16.807  1.00  0.00    +0.170 HD
BRANCH  13  15
ATOM     15  C   UNL     1      48.174  56.823  17.533  1.00  0.00    +0.084 A 
ATOM     16  C   UNL     1      48.168  57.719  18.603  1.00  0.00    +0.030 A 
ATOM     17  C   UNL     1      47.467  57.139  16.352  1.00  0.00    +0.142 A 
ATOM     18  C   UNL     1      47.463  58.922  18.507  1.00  0.00    +0.002 A 
ATOM     19  C   UNL     1      46.766  58.346  16.265  1.00  0.00    +0.048 A 
ATOM     20  C   UNL     1      46.766  59.233  17.343  1.00  0.00    +0.004 A 
BRANCH  17  21
ATOM     21  O   UNL     1      47.545  56.198  15.350  1.00  0.00    -0.495 OA
ATOM     22  C   UNL     1      46.393  56.035  14.530  1.00  0.00    +0.278 C 
ENDBRANCH  17  21
ENDBRANCH  13  15
ENDBRANCH   3  11
BRANCH   4  23
ATOM     23  C   UNL     1      51.355  54.272  19.911  1.00  0.00    -0.017 A 
ATOM     24  C   UNL     1      51.127  53.402  20.986  1.00  0.00    +0.010 A 
ATOM     25  C   UNL     1      51.753  55.590  20.187  1.00  0.00    +0.056 A 
ATOM     26  C   UNL     1      51.321  53.827  22.304  1.00  0.00    +0.051 A 
ATOM     27  C   UNL     1      51.919  56.030  21.507  1.00  0.00    +0.161 A 
ATOM     28  C   UNL     1      51.723  55.138  22.576  1.00  0.00    +0.160 A 
BRANCH  27  29
ATOM     29  O   UNL     1      52.309  57.309  21.826  1.00  0.00    -0.493 OA
ATOM     30  C   UNL     1      53.551  57.729  21.272  1.00  0.00    +0.278 C 
ENDBRANCH  27  29
BRANCH  28  31
ATOM     31  O   UNL     1      51.932  55.644  23.834  1.00  0.00    -0.493 OA
ATOM     32  C   UNL     1      51.470  54.877  24.935  1.00  0.00    +0.278 C 
ENDBRANCH  28  31
ENDBRANCH   4  23
TORSDOF 6
ENDMDL
MODEL 5
REMARK VINA RESULT:    -5.604      3.295      5.889
REMARK INTER + INTRA:          -8.954
REMARK INTER:                  -8.377
REMARK INTRA:                  -0.577
REMARK UNBOUND:                -1.384
REMARK SMILES COc1ccccc1NC(=O)C1=C(C)NC(=S)N[C@@H]1c1ccc(OC)c(OC)c1
REMARK SMILES IDX 14 1 13 2 12 3 19 4 18 5 16 6 17 7 15 8 10 11 11 12 9 13
REMARK SMILES IDX 8 15 7 16 3 17 6 18 4 19 5 20 2 21 1 22 20 23 21 24 29 25
REMARK SMILES IDX 22 26 26 27 23 28 27 29 28 30 24 31 25 32
REMARK H PARENT 18 9 15 10 9 14
ROOT
ATOM      1  C   UNL     1      41.879  62.184  19.215  1.00  0.00    +0.065 C 
ATOM      2  C   UNL     1      41.772  61.049  18.237  1.00  0.00    +0.025 C 
ATOM      3  C   UNL     1      42.279  61.023  16.992  1.00  0.00    +0.063 C 
ATOM      4  C   UNL     1      42.149  59.838  16.081  1.00  0.00    +0.150 C 
ATOM      5  N   UNL     1      41.305  58.809  16.670  1.00  0.00    -0.351 N 
ATOM      6  C   UNL     1      40.831  58.830  17.939  1.00  0.00    +0.171 C 
ATOM      7  S   UNL     1      39.972  57.552  18.558  1.00  0.00    -0.041 S 
ATOM      8  N   UNL     1      41.077  59.944  18.680  1.00  0.00    -0.336 N 
ATOM      9  H   UNL     1      41.146  57.961  16.139  1.00  0.00    +0.163 HD
ATOM     10  H   UNL     1      40.702  59.942  19.625  1.00  0.00    +0.169 HD
ENDROOT
BRANCH   3  11
ATOM     11  C   UNL     1      43.032  62.184  16.454  1.00  0.00    +0.255 C 
ATOM     12  O   UNL     1      42.745  62.654  15.362  1.00  0.00    -0.269 OA
ATOM     13  N   UNL     1      44.027  62.590  17.312  1.00  0.00    -0.319 N 
ATOM     14  H   UNL     1      44.224  62.027  18.133  1.00  0.00    +0.170 HD
BRANCH  13  15
ATOM     15  C   UNL     1      44.876  63.712  17.189  1.00  0.00    +0.084 A 
ATOM     16  C   UNL     1      44.410  65.025  17.097  1.00  0.00    +0.030 A 
ATOM     17  C   UNL     1      46.266  63.460  17.179  1.00  0.00    +0.142 A 
ATOM     18  C   UNL     1      45.315  66.084  16.992  1.00  0.00    +0.002 A 
ATOM     19  C   UNL     1      47.163  64.527  17.076  1.00  0.00    +0.048 A 
ATOM     20  C   UNL     1      46.685  65.836  16.982  1.00  0.00    +0.004 A 
BRANCH  17  21
ATOM     21  O   UNL     1      46.624  62.136  17.288  1.00  0.00    -0.495 OA
ATOM     22  C   UNL     1      47.396  61.770  18.426  1.00  0.00    +0.278 C 
ENDBRANCH  17  21
ENDBRANCH  13  15
ENDBRANCH   3  11
BRANCH   4  23
ATOM     23  C   UNL     1      43.487  59.255  15.652  1.00  0.00    -0.017 A 
ATOM     24  C   UNL     1      44.643  59.421  16.426  1.00  0.00    +0.010 A 
ATOM     25  C   UNL     1      43.590  58.571  14.429  1.00  0.00    +0.056 A 
ATOM     26  C   UNL     1      45.868  58.893  16.005  1.00  0.00    +0.051 A 
ATOM     27  C   UNL     1      44.820  58.066  13.989  1.00  0.00    +0.161 A 
ATOM     28  C   UNL     1      45.967  58.208  14.791  1.00  0.00    +0.160 A 
BRANCH  27  29
ATOM     29  O   UNL     1      44.969  57.389  12.802  1.00  0.00    -0.493 OA
ATOM     30  C   UNL     1      43.763  57.109  12.099  1.00  0.00    +0.278 C 
ENDBRANCH  27  29
BRANCH  28  31
ATOM     31  O   UNL     1      47.123  57.661  14.296  1.00  0.00    -0.493 OA
ATOM     32  C   UNL     1      47.887  56.841  15.168  1.00  0.00    +0.278 C 
ENDBRANCH  28  31
ENDBRANCH   4  23
TORSDOF 6
ENDMDL
