MODEL 1
REMARK VINA RESULT:    -8.281      0.000      0.000
REMARK INTER + INTRA:         -11.694
REMARK INTER:                 -12.153
REMARK INTRA:                   0.459
REMARK UNBOUND:                 0.459
REMARK SMILES CC(C)(C)OC(=O)[C@@H]1C(=O)C[C@](C)(O)[C@@H](C(=O)OC(C)(C)C)[C@H]1c1cccc(N)c1
REMARK SMILES IDX 13 1 12 2 11 3 9 4 10 5 8 6 23 7 15 8 14 9 16 11 17 12 18 13
REMARK SMILES IDX 19 14 20 15 21 16 22 17 24 18 25 19 30 20 26 21 28 22 27 23
REMARK SMILES IDX 29 24 6 27 7 28 5 29 2 30 1 31 3 32 4 33
REMARK H PARENT 14 10 29 25 29 26
ROOT
ATOM      1  C   UNL     1      48.321  54.926  19.835  1.00  0.00    +0.043 C 
ATOM      2  C   UNL     1      49.250  55.131  18.629  1.00  0.00    +0.083 C 
ATOM      3  C   UNL     1      48.486  54.974  17.312  1.00  0.00    +0.112 C 
ATOM      4  C   UNL     1      48.126  53.547  16.987  1.00  0.00    +0.150 C 
ATOM      5  O   UNL     1      47.264  53.322  16.132  1.00  0.00    -0.299 OA
ATOM      6  C   UNL     1      48.844  52.436  17.726  1.00  0.00    +0.174 C 
ATOM      7  C   UNL     1      50.318  52.812  18.005  1.00  0.00    +0.058 C 
ATOM      8  C   UNL     1      50.523  54.248  18.582  1.00  0.00    +0.140 C 
ENDROOT
BRANCH   2   9
ATOM      9  O   UNL     1      49.693  56.501  18.672  1.00  0.00    -0.389 OA
ATOM     10  H   UNL     1      50.662  56.518  18.788  1.00  0.00    +0.211 HD
ENDBRANCH   2   9
BRANCH   8  11
ATOM     11  C   UNL     1      51.323  54.312  19.881  1.00  0.00    +0.313 C 
ATOM     12  O   UNL     1      52.417  53.799  20.059  1.00  0.00    -0.252 OA
BRANCH  11  13
ATOM     13  O   UNL     1      50.633  55.050  20.794  1.00  0.00    -0.460 OA
BRANCH  13  14
ATOM     14  C   UNL     1      51.295  56.034  21.626  1.00  0.00    +0.104 C 
ATOM     15  C   UNL     1      50.207  57.075  21.926  1.00  0.00    +0.056 C 
ATOM     16  C   UNL     1      52.451  56.732  20.903  1.00  0.00    +0.056 C 
ATOM     17  C   UNL     1      51.747  55.401  22.945  1.00  0.00    +0.056 C 
ENDBRANCH  13  14
ENDBRANCH  11  13
ENDBRANCH   8  11
BRANCH   7  18
ATOM     18  C   UNL     1      51.055  51.709  18.754  1.00  0.00    -0.041 A 
ATOM     19  C   UNL     1      52.236  51.139  18.256  1.00  0.00    +0.004 A 
ATOM     20  C   UNL     1      50.542  51.231  19.973  1.00  0.00    +0.029 A 
ATOM     21  C   UNL     1      52.868  50.109  18.950  1.00  0.00    +0.002 A 
ATOM     22  C   UNL     1      51.209  50.247  20.710  1.00  0.00    +0.032 A 
ATOM     23  C   UNL     1      52.343  49.653  20.159  1.00  0.00    +0.025 A 
BRANCH  22  24
ATOM     24  N   UNL     1      50.624  49.716  21.869  1.00  0.00    -0.399 N 
ATOM     25  H   UNL     1      51.097  50.001  22.722  1.00  0.00    +0.156 HD
ATOM     26  H   UNL     1      50.515  48.707  21.828  1.00  0.00    +0.156 HD
ENDBRANCH  22  24
ENDBRANCH   7  18
BRANCH   6  27
ATOM     27  C   UNL     1      48.743  51.131  16.959  1.00  0.00    +0.317 C 
ATOM     28  O   UNL     1      49.507  50.827  16.053  1.00  0.00    -0.251 OA
BRANCH  27  29
ATOM     29  O   UNL     1      47.712  50.375  17.422  1.00  0.00    -0.459 OA
BRANCH  29  30
ATOM     30  C   UNL     1      47.839  48.934  17.533  1.00  0.00    +0.104 C 
ATOM     31  C   UNL     1      47.654  48.251  16.174  1.00  0.00    +0.056 C 
ATOM     32  C   UNL     1      46.685  48.514  18.456  1.00  0.00    +0.056 C 
ATOM     33  C   UNL     1      49.163  48.542  18.199  1.00  0.00    +0.056 C 
ENDBRANCH  29  30
ENDBRANCH  27  29
ENDBRANCH   6  27
TORSDOF 9
ENDMDL
MODEL 2
REMARK VINA RESULT:    -7.502      1.252      2.127
REMARK INTER + INTRA:         -10.551
REMARK INTER:                 -11.756
REMARK INTRA:                   1.205
REMARK UNBOUND:                 0.459
REMARK SMILES CC(C)(C)OC(=O)[C@@H]1C(=O)C[C@](C)(O)[C@@H](C(=O)OC(C)(C)C)[C@H]1c1cccc(N)c1
REMARK SMILES IDX 13 1 12 2 11 3 9 4 10 5 8 6 23 7 15 8 14 9 16 11 17 12 18 13
REMARK SMILES IDX 19 14 20 15 21 16 22 17 24 18 25 19 30 20 26 21 28 22 27 23
REMARK SMILES IDX 29 24 6 27 7 28 5 29 2 30 1 31 3 32 4 33
REMARK H PARENT 14 10 29 25 29 26
ROOT
ATOM      1  C   UNL     1      48.259  55.302  19.668  1.00  0.00    +0.043 C 
ATOM      2  C   UNL     1      49.226  55.332  18.476  1.00  0.00    +0.083 C 
ATOM      3  C   UNL     1      48.488  55.068  17.160  1.00  0.00    +0.112 C 
ATOM      4  C   UNL     1      48.068  53.631  16.981  1.00  0.00    +0.150 C 
ATOM      5  O   UNL     1      47.218  53.354  16.130  1.00  0.00    -0.299 OA
ATOM      6  C   UNL     1      48.712  52.576  17.856  1.00  0.00    +0.174 C 
ATOM      7  C   UNL     1      50.195  52.913  18.136  1.00  0.00    +0.058 C 
ATOM      8  C   UNL     1      50.456  54.392  18.562  1.00  0.00    +0.140 C 
ENDROOT
BRANCH   2   9
ATOM      9  O   UNL     1      49.735  56.677  18.383  1.00  0.00    -0.389 OA
ATOM     10  H   UNL     1      50.622  56.655  17.979  1.00  0.00    +0.211 HD
ENDBRANCH   2   9
BRANCH   8  11
ATOM     11  C   UNL     1      51.225  54.561  19.869  1.00  0.00    +0.313 C 
ATOM     12  O   UNL     1      52.336  54.106  20.095  1.00  0.00    -0.252 OA
BRANCH  11  13
ATOM     13  O   UNL     1      50.486  55.317  20.728  1.00  0.00    -0.460 OA
BRANCH  13  14
ATOM     14  C   UNL     1      51.086  56.386  21.501  1.00  0.00    +0.104 C 
ATOM     15  C   UNL     1      51.607  55.694  22.769  1.00  0.00    +0.056 C 
ATOM     16  C   UNL     1      50.069  57.455  21.912  1.00  0.00    +0.056 C 
ATOM     17  C   UNL     1      52.273  56.990  20.746  1.00  0.00    +0.056 C 
ENDBRANCH  13  14
ENDBRANCH  11  13
ENDBRANCH   8  11
BRANCH   7  18
ATOM     18  C   UNL     1      50.860  51.866  19.022  1.00  0.00    -0.041 A 
ATOM     19  C   UNL     1      50.456  51.654  20.347  1.00  0.00    +0.004 A 
ATOM     20  C   UNL     1      51.918  51.092  18.512  1.00  0.00    +0.029 A 
ATOM     21  C   UNL     1      51.107  50.711  21.141  1.00  0.00    +0.002 A 
ATOM     22  C   UNL     1      52.529  50.096  19.280  1.00  0.00    +0.032 A 
ATOM     23  C   UNL     1      52.151  49.953  20.614  1.00  0.00    +0.025 A 
BRANCH  22  24
ATOM     24  N   UNL     1      53.648  49.410  18.783  1.00  0.00    -0.399 N 
ATOM     25  H   UNL     1      53.967  48.667  19.400  1.00  0.00    +0.156 HD
ATOM     26  H   UNL     1      54.410  50.031  18.531  1.00  0.00    +0.156 HD
ENDBRANCH  22  24
ENDBRANCH   7  18
BRANCH   6  27
ATOM     27  C   UNL     1      48.567  51.202  17.232  1.00  0.00    +0.317 C 
ATOM     28  O   UNL     1      47.825  50.338  17.681  1.00  0.00    -0.251 OA
BRANCH  27  29
ATOM     29  O   UNL     1      49.357  51.083  16.131  1.00  0.00    -0.459 OA
BRANCH  29  30
ATOM     30  C   UNL     1      49.329  49.878  15.324  1.00  0.00    +0.104 C 
ATOM     31  C   UNL     1      49.162  48.627  16.193  1.00  0.00    +0.056 C 
ATOM     32  C   UNL     1      50.711  49.831  14.654  1.00  0.00    +0.056 C 
ATOM     33  C   UNL     1      48.260  49.966  14.229  1.00  0.00    +0.056 C 
ENDBRANCH  29  30
ENDBRANCH  27  29
ENDBRANCH   6  27
TORSDOF 9
ENDMDL
MODEL 3
REMARK VINA RESULT:    -6.593      2.390      4.412
REMARK INTER + INTRA:          -9.217
REMARK INTER:                  -9.248
REMARK INTRA:                   0.031
REMARK UNBOUND:                 0.459
REMARK SMILES CC(C)(C)OC(=O)[C@@H]1C(=O)C[C@](C)(O)[C@@H](C(=O)OC(C)(C)C)[C@H]1c1cccc(N)c1
REMARK SMILES IDX 13 1 12 2 11 3 9 4 10 5 8 6 23 7 15 8 14 9 16 11 17 12 18 13
REMARK SMILES IDX 19 14 20 15 21 16 22 17 24 18 25 19 30 20 26 21 28 22 27 23
REMARK SMILES IDX 29 24 6 27 7 28 5 29 2 30 1 31 3 32 4 33
REMARK H PARENT 14 10 29 25 29 26
ROOT
ATOM      1  C   UNL     1      52.782  50.882  19.996  1.00  0.00    +0.043 C 
ATOM      2  C   UNL     1      51.440  51.422  20.510  1.00  0.00    +0.083 C 
ATOM      3  C   UNL     1      50.779  50.431  21.472  1.00  0.00    +0.112 C 
ATOM      4  C   UNL     1      50.204  49.217  20.788  1.00  0.00    +0.150 C 
ATOM      5  O   UNL     1      49.925  48.221  21.462  1.00  0.00    -0.299 OA
ATOM      6  C   UNL     1      49.987  49.268  19.289  1.00  0.00    +0.174 C 
ATOM      7  C   UNL     1      49.555  50.682  18.836  1.00  0.00    +0.058 C 
ATOM      8  C   UNL     1      50.409  51.844  19.433  1.00  0.00    +0.140 C 
ENDROOT
BRANCH   2   9
ATOM      9  O   UNL     1      51.734  52.598  21.290  1.00  0.00    -0.389 OA
ATOM     10  H   UNL     1      52.701  52.720  21.329  1.00  0.00    +0.211 HD
ENDBRANCH   2   9
BRANCH   8  11
ATOM     11  C   UNL     1      51.002  52.802  18.403  1.00  0.00    +0.313 C 
ATOM     12  O   UNL     1      52.097  52.678  17.875  1.00  0.00    -0.252 OA
BRANCH  11  13
ATOM     13  O   UNL     1      50.108  53.799  18.153  1.00  0.00    -0.460 OA
BRANCH  13  14
ATOM     14  C   UNL     1      50.073  55.003  18.958  1.00  0.00    +0.104 C 
ATOM     15  C   UNL     1      49.262  56.001  18.119  1.00  0.00    +0.056 C 
ATOM     16  C   UNL     1      51.467  55.588  19.199  1.00  0.00    +0.056 C 
ATOM     17  C   UNL     1      49.329  54.745  20.272  1.00  0.00    +0.056 C 
ENDBRANCH  13  14
ENDBRANCH  11  13
ENDBRANCH   8  11
BRANCH   7  18
ATOM     18  C   UNL     1      49.338  50.756  17.329  1.00  0.00    -0.041 A 
ATOM     19  C   UNL     1      48.287  51.495  16.769  1.00  0.00    +0.004 A 
ATOM     20  C   UNL     1      50.200  50.056  16.466  1.00  0.00    +0.029 A 
ATOM     21  C   UNL     1      48.096  51.514  15.388  1.00  0.00    +0.002 A 
ATOM     22  C   UNL     1      50.058  50.128  15.076  1.00  0.00    +0.032 A 
ATOM     23  C   UNL     1      48.965  50.817  14.551  1.00  0.00    +0.025 A 
BRANCH  22  24
ATOM     24  N   UNL     1      50.866  49.341  14.243  1.00  0.00    -0.399 N 
ATOM     25  H   UNL     1      51.157  49.824  13.397  1.00  0.00    +0.156 HD
ATOM     26  H   UNL     1      50.450  48.440  14.028  1.00  0.00    +0.156 HD
ENDBRANCH  22  24
ENDBRANCH   7  18
BRANCH   6  27
ATOM     27  C   UNL     1      48.980  48.219  18.858  1.00  0.00    +0.317 C 
ATOM     28  O   UNL     1      49.302  47.149  18.357  1.00  0.00    -0.251 OA
BRANCH  27  29
ATOM     29  O   UNL     1      47.710  48.633  19.112  1.00  0.00    -0.459 OA
BRANCH  29  30
ATOM     30  C   UNL     1      46.619  48.264  18.229  1.00  0.00    +0.104 C 
ATOM     31  C   UNL     1      45.868  49.500  17.723  1.00  0.00    +0.056 C 
ATOM     32  C   UNL     1      45.670  47.438  19.112  1.00  0.00    +0.056 C 
ATOM     33  C   UNL     1      47.110  47.377  17.079  1.00  0.00    +0.056 C 
ENDBRANCH  29  30
ENDBRANCH  27  29
ENDBRANCH   6  27
TORSDOF 9
ENDMDL
MODEL 4
REMARK VINA RESULT:    -6.465      1.537      6.169
REMARK INTER + INTRA:          -9.030
REMARK INTER:                 -10.213
REMARK INTRA:                   1.183
REMARK UNBOUND:                 0.459
REMARK SMILES CC(C)(C)OC(=O)[C@@H]1C(=O)C[C@](C)(O)[C@@H](C(=O)OC(C)(C)C)[C@H]1c1cccc(N)c1
REMARK SMILES IDX 13 1 12 2 11 3 9 4 10 5 8 6 23 7 15 8 14 9 16 11 17 12 18 13
REMARK SMILES IDX 19 14 20 15 21 16 22 17 24 18 25 19 30 20 26 21 28 22 27 23
REMARK SMILES IDX 29 24 6 27 7 28 5 29 2 30 1 31 3 32 4 33
REMARK H PARENT 14 10 29 25 29 26
ROOT
ATOM      1  C   UNL     1      48.471  51.500  15.729  1.00  0.00    +0.043 C 
ATOM      2  C   UNL     1      47.694  51.814  17.016  1.00  0.00    +0.083 C 
ATOM      3  C   UNL     1      47.406  53.313  17.134  1.00  0.00    +0.112 C 
ATOM      4  C   UNL     1      48.619  54.137  17.483  1.00  0.00    +0.150 C 
ATOM      5  O   UNL     1      48.589  55.359  17.309  1.00  0.00    -0.299 OA
ATOM      6  C   UNL     1      49.837  53.428  18.040  1.00  0.00    +0.174 C 
ATOM      7  C   UNL     1      49.427  52.243  18.945  1.00  0.00    +0.058 C 
ATOM      8  C   UNL     1      48.325  51.316  18.341  1.00  0.00    +0.140 C 
ENDROOT
BRANCH   2   9
ATOM      9  O   UNL     1      46.410  51.170  16.896  1.00  0.00    -0.389 OA
ATOM     10  H   UNL     1      46.449  50.300  17.336  1.00  0.00    +0.211 HD
ENDBRANCH   2   9
BRANCH   8  11
ATOM     11  C   UNL     1      48.685  49.834  18.292  1.00  0.00    +0.313 C 
ATOM     12  O   UNL     1      49.107  49.181  19.234  1.00  0.00    -0.252 OA
BRANCH  11  13
ATOM     13  O   UNL     1      48.438  49.356  17.041  1.00  0.00    -0.460 OA
BRANCH  13  14
ATOM     14  C   UNL     1      47.763  48.091  16.834  1.00  0.00    +0.104 C 
ATOM     15  C   UNL     1      47.165  48.202  15.425  1.00  0.00    +0.056 C 
ATOM     16  C   UNL     1      46.622  47.865  17.831  1.00  0.00    +0.056 C 
ATOM     17  C   UNL     1      48.771  46.938  16.852  1.00  0.00    +0.056 C 
ENDBRANCH  13  14
ENDBRANCH  11  13
ENDBRANCH   8  11
BRANCH   7  18
ATOM     18  C   UNL     1      50.638  51.512  19.510  1.00  0.00    -0.041 A 
ATOM     19  C   UNL     1      50.914  51.490  20.884  1.00  0.00    +0.004 A 
ATOM     20  C   UNL     1      51.521  50.848  18.639  1.00  0.00    +0.029 A 
ATOM     21  C   UNL     1      52.049  50.840  21.366  1.00  0.00    +0.002 A 
ATOM     22  C   UNL     1      52.623  50.134  19.121  1.00  0.00    +0.032 A 
ATOM     23  C   UNL     1      52.908  50.185  20.485  1.00  0.00    +0.025 A 
BRANCH  22  24
ATOM     24  N   UNL     1      53.543  49.568  18.226  1.00  0.00    -0.399 N 
ATOM     25  H   UNL     1      53.546  50.021  17.316  1.00  0.00    +0.156 HD
ATOM     26  H   UNL     1      53.435  48.562  18.135  1.00  0.00    +0.156 HD
ENDBRANCH  22  24
ENDBRANCH   7  18
BRANCH   6  27
ATOM     27  C   UNL     1      50.732  54.403  18.780  1.00  0.00    +0.317 C 
ATOM     28  O   UNL     1      51.924  54.535  18.536  1.00  0.00    -0.251 OA
BRANCH  27  29
ATOM     29  O   UNL     1      50.028  55.089  19.720  1.00  0.00    -0.459 OA
BRANCH  29  30
ATOM     30  C   UNL     1      50.711  55.866  20.738  1.00  0.00    +0.104 C 
ATOM     31  C   UNL     1      51.335  54.962  21.806  1.00  0.00    +0.056 C 
ATOM     32  C   UNL     1      49.602  56.706  21.391  1.00  0.00    +0.056 C 
ATOM     33  C   UNL     1      51.739  56.817  20.115  1.00  0.00    +0.056 C 
ENDBRANCH  29  30
ENDBRANCH  27  29
ENDBRANCH   6  27
TORSDOF 9
ENDMDL
MODEL 5
REMARK VINA RESULT:    -6.140      9.737     11.470
REMARK INTER + INTRA:          -8.552
REMARK INTER:                  -7.800
REMARK INTRA:                  -0.752
REMARK UNBOUND:                 0.459
REMARK SMILES CC(C)(C)OC(=O)[C@@H]1C(=O)C[C@](C)(O)[C@@H](C(=O)OC(C)(C)C)[C@H]1c1cccc(N)c1
REMARK SMILES IDX 13 1 12 2 11 3 9 4 10 5 8 6 23 7 15 8 14 9 16 11 17 12 18 13
REMARK SMILES IDX 19 14 20 15 21 16 22 17 24 18 25 19 30 20 26 21 28 22 27 23
REMARK SMILES IDX 29 24 6 27 7 28 5 29 2 30 1 31 3 32 4 33
REMARK H PARENT 14 10 29 25 29 26
ROOT
ATOM      1  C   UNL     1      44.655  61.170  19.473  1.00  0.00    +0.043 C 
ATOM      2  C   UNL     1      43.893  62.344  18.841  1.00  0.00    +0.083 C 
ATOM      3  C   UNL     1      42.403  62.286  19.189  1.00  0.00    +0.112 C 
ATOM      4  C   UNL     1      41.653  61.203  18.456  1.00  0.00    +0.150 C 
ATOM      5  O   UNL     1      40.540  60.858  18.865  1.00  0.00    -0.299 OA
ATOM      6  C   UNL     1      42.297  60.578  17.235  1.00  0.00    +0.174 C 
ATOM      7  C   UNL     1      43.111  61.624  16.437  1.00  0.00    +0.058 C 
ATOM      8  C   UNL     1      44.046  62.520  17.308  1.00  0.00    +0.140 C 
ENDROOT
BRANCH   2   9
ATOM      9  O   UNL     1      44.398  63.547  19.452  1.00  0.00    -0.389 OA
ATOM     10  H   UNL     1      45.303  63.713  19.126  1.00  0.00    +0.211 HD
ENDBRANCH   2   9
BRANCH   8  11
ATOM     11  C   UNL     1      45.508  62.543  16.869  1.00  0.00    +0.313 C 
ATOM     12  O   UNL     1      46.353  61.723  17.194  1.00  0.00    -0.252 OA
BRANCH  11  13
ATOM     13  O   UNL     1      45.709  63.607  16.042  1.00  0.00    -0.460 OA
BRANCH  13  14
ATOM     14  C   UNL     1      46.386  64.803  16.500  1.00  0.00    +0.104 C 
ATOM     15  C   UNL     1      47.232  65.246  15.299  1.00  0.00    +0.056 C 
ATOM     16  C   UNL     1      47.321  64.532  17.682  1.00  0.00    +0.056 C 
ATOM     17  C   UNL     1      45.369  65.903  16.819  1.00  0.00    +0.056 C 
ENDBRANCH  13  14
ENDBRANCH  11  13
ENDBRANCH   8  11
BRANCH   7  18
ATOM     18  C   UNL     1      43.772  61.013  15.208  1.00  0.00    -0.041 A 
ATOM     19  C   UNL     1      43.636  61.583  13.935  1.00  0.00    +0.004 A 
ATOM     20  C   UNL     1      44.532  59.837  15.337  1.00  0.00    +0.029 A 
ATOM     21  C   UNL     1      44.227  60.981  12.825  1.00  0.00    +0.002 A 
ATOM     22  C   UNL     1      45.186  59.265  14.241  1.00  0.00    +0.032 A 
ATOM     23  C   UNL     1      44.979  59.817  12.977  1.00  0.00    +0.025 A 
BRANCH  22  24
ATOM     24  N   UNL     1      45.852  58.038  14.377  1.00  0.00    -0.399 N 
ATOM     25  H   UNL     1      46.199  57.672  13.495  1.00  0.00    +0.156 HD
ATOM     26  H   UNL     1      45.300  57.344  14.872  1.00  0.00    +0.156 HD
ENDBRANCH  22  24
ENDBRANCH   7  18
BRANCH   6  27
ATOM     27  C   UNL     1      41.252  59.910  16.362  1.00  0.00    +0.317 C 
ATOM     28  O   UNL     1      40.360  60.527  15.795  1.00  0.00    -0.251 OA
BRANCH  27  29
ATOM     29  O   UNL     1      41.456  58.567  16.304  1.00  0.00    -0.459 OA
BRANCH  29  30
ATOM     30  C   UNL     1      41.207  57.830  15.079  1.00  0.00    +0.104 C 
ATOM     31  C   UNL     1      39.863  57.096  15.131  1.00  0.00    +0.056 C 
ATOM     32  C   UNL     1      42.335  56.788  15.019  1.00  0.00    +0.056 C 
ATOM     33  C   UNL     1      41.319  58.741  13.851  1.00  0.00    +0.056 C 
ENDBRANCH  29  30
ENDBRANCH  27  29
ENDBRANCH   6  27
TORSDOF 9
ENDMDL
