MODEL 1
REMARK VINA RESULT:    -7.580      0.000      0.000
REMARK INTER + INTRA:         -11.522
REMARK INTER:                 -10.903
REMARK INTRA:                  -0.619
REMARK UNBOUND:                -0.619
REMARK SMILES CC[NH+](CC)CC/N=C/c1c(O)n(C2CCCCC2)c(=O)[nH]c1=O
REMARK SMILES IDX 7 1 6 2 3 3 2 5 1 6 4 7 5 8 8 9 9 10 10 11 23 12 11 13 24 14
REMARK SMILES IDX 22 15 13 16 20 17 21 18 12 20 14 22 15 23 19 24 16 25 18 26
REMARK SMILES IDX 17 27
REMARK H PARENT 3 4 22 19 12 21
ROOT
ATOM      1  C   UNL     1      52.090  55.869  19.153  1.00  0.00    +0.203 C 
ENDROOT
BRANCH   1   2
ATOM      2  C   UNL     1      50.800  56.437  19.771  1.00  0.00    +0.286 C 
BRANCH   2   3
ATOM      3  N   UNL     1      51.077  57.280  21.012  1.00  0.00    -0.334 N 
ATOM      4  H   UNL     1      51.366  58.208  20.676  1.00  0.00    +0.348 HD
BRANCH   3   5
ATOM      5  C   UNL     1      52.208  56.715  21.850  1.00  0.00    +0.258 C 
ATOM      6  C   UNL     1      51.672  55.678  22.820  1.00  0.00    +0.071 C 
ENDBRANCH   3   5
BRANCH   3   7
ATOM      7  C   UNL     1      49.807  57.478  21.828  1.00  0.00    +0.258 C 
ATOM      8  C   UNL     1      48.581  57.249  20.963  1.00  0.00    +0.071 C 
ENDBRANCH   3   7
ENDBRANCH   2   3
ENDBRANCH   1   2
BRANCH   1   9
ATOM      9  N   UNL     1      51.832  54.474  18.812  1.00  0.00    -0.286 NA
ATOM     10  C   UNL     1      50.998  53.853  19.572  1.00  0.00    +0.124 C 
BRANCH  10  11
ATOM     11  C   UNL     1      50.654  52.418  19.420  1.00  0.00    +0.118 C 
ATOM     12  C   UNL     1      51.032  51.395  20.414  1.00  0.00    +0.266 C 
ATOM     13  C   UNL     1      49.930  52.018  18.362  1.00  0.00    +0.210 C 
ATOM     14  O   UNL     1      51.445  51.664  21.537  1.00  0.00    -0.268 OA
ATOM     15  N   UNL     1      50.870  50.105  20.008  1.00  0.00    -0.273 N 
ATOM     16  N   UNL     1      49.521  50.698  18.192  1.00  0.00    -0.261 N 
ATOM     17  C   UNL     1      49.988  49.701  19.052  1.00  0.00    +0.331 C 
ATOM     18  O   UNL     1      49.650  48.520  19.018  1.00  0.00    -0.248 OA
ATOM     19  H   UNL     1      51.093  49.397  20.693  1.00  0.00    +0.175 HD
BRANCH  13  20
ATOM     20  O   UNL     1      49.583  52.923  17.381  1.00  0.00    -0.494 OA
ATOM     21  H   UNL     1      50.109  53.727  17.540  1.00  0.00    +0.295 HD
ENDBRANCH  13  20
BRANCH  16  22
ATOM     22  C   UNL     1      48.488  50.327  17.189  1.00  0.00    +0.095 C 
ATOM     23  C   UNL     1      49.065  49.495  16.028  1.00  0.00    +0.026 C 
ATOM     24  C   UNL     1      47.254  49.649  17.818  1.00  0.00    +0.026 C 
ATOM     25  C   UNL     1      47.992  49.170  14.989  1.00  0.00    +0.002 C 
ATOM     26  C   UNL     1      46.201  49.327  16.759  1.00  0.00    +0.002 C 
ATOM     27  C   UNL     1      46.784  48.488  15.625  1.00  0.00    +0.000 C 
ENDBRANCH  16  22
ENDBRANCH  10  11
ENDBRANCH   1   9
TORSDOF 8
ENDMDL
MODEL 2
REMARK VINA RESULT:    -7.473      1.513      1.790
REMARK INTER + INTRA:         -11.369
REMARK INTER:                 -10.886
REMARK INTRA:                  -0.483
REMARK UNBOUND:                -0.619
REMARK SMILES CC[NH+](CC)CC/N=C/c1c(O)n(C2CCCCC2)c(=O)[nH]c1=O
REMARK SMILES IDX 7 1 6 2 3 3 2 5 1 6 4 7 5 8 8 9 9 10 10 11 23 12 11 13 24 14
REMARK SMILES IDX 22 15 13 16 20 17 21 18 12 20 14 22 15 23 19 24 16 25 18 26
REMARK SMILES IDX 17 27
REMARK H PARENT 3 4 22 19 12 21
ROOT
ATOM      1  C   UNL     1      49.365  55.521  18.666  1.00  0.00    +0.203 C 
ENDROOT
BRANCH   1   2
ATOM      2  C   UNL     1      49.204  56.055  20.101  1.00  0.00    +0.286 C 
BRANCH   2   3
ATOM      3  N   UNL     1      50.539  56.457  20.720  1.00  0.00    -0.334 N 
ATOM      4  H   UNL     1      51.131  56.788  19.948  1.00  0.00    +0.348 HD
BRANCH   3   5
ATOM      5  C   UNL     1      51.243  55.287  21.379  1.00  0.00    +0.258 C 
ATOM      6  C   UNL     1      51.673  55.660  22.786  1.00  0.00    +0.071 C 
ENDBRANCH   3   5
BRANCH   3   7
ATOM      7  C   UNL     1      50.362  57.628  21.678  1.00  0.00    +0.258 C 
ATOM      8  C   UNL     1      48.908  58.064  21.717  1.00  0.00    +0.071 C 
ENDBRANCH   3   7
ENDBRANCH   2   3
ENDBRANCH   1   2
BRANCH   1   9
ATOM      9  N   UNL     1      48.956  54.120  18.674  1.00  0.00    -0.286 NA
ATOM     10  C   UNL     1      49.858  53.267  18.332  1.00  0.00    +0.124 C 
BRANCH  10  11
ATOM     11  C   UNL     1      49.614  51.808  18.224  1.00  0.00    +0.118 C 
ATOM     12  C   UNL     1      50.425  50.806  18.943  1.00  0.00    +0.266 C 
ATOM     13  C   UNL     1      48.589  51.360  17.481  1.00  0.00    +0.210 C 
ATOM     14  O   UNL     1      51.199  51.088  19.851  1.00  0.00    -0.268 OA
ATOM     15  N   UNL     1      50.242  49.517  18.543  1.00  0.00    -0.273 N 
ATOM     16  N   UNL     1      48.268  50.008  17.389  1.00  0.00    -0.261 N 
ATOM     17  C   UNL     1      49.109  49.045  17.952  1.00  0.00    +0.331 C 
ATOM     18  O   UNL     1      48.891  47.837  17.969  1.00  0.00    -0.248 OA
ATOM     19  H   UNL     1      50.766  48.820  19.052  1.00  0.00    +0.175 HD
BRANCH  13  20
ATOM     20  O   UNL     1      47.823  52.247  16.755  1.00  0.00    -0.494 OA
ATOM     21  H   UNL     1      48.425  52.942  16.435  1.00  0.00    +0.295 HD
ENDBRANCH  13  20
BRANCH  16  22
ATOM     22  C   UNL     1      46.974  49.554  16.812  1.00  0.00    +0.095 C 
ATOM     23  C   UNL     1      47.164  48.658  15.574  1.00  0.00    +0.026 C 
ATOM     24  C   UNL     1      46.047  48.898  17.855  1.00  0.00    +0.026 C 
ATOM     25  C   UNL     1      45.820  48.246  14.974  1.00  0.00    +0.002 C 
ATOM     26  C   UNL     1      44.715  48.489  17.229  1.00  0.00    +0.002 C 
ATOM     27  C   UNL     1      44.919  47.587  16.015  1.00  0.00    +0.000 C 
ENDBRANCH  16  22
ENDBRANCH  10  11
ENDBRANCH   1   9
TORSDOF 8
ENDMDL
MODEL 3
REMARK VINA RESULT:    -6.812      4.145      6.903
REMARK INTER + INTRA:         -10.418
REMARK INTER:                 -10.016
REMARK INTRA:                  -0.402
REMARK UNBOUND:                -0.619
REMARK SMILES CC[NH+](CC)CC/N=C/c1c(O)n(C2CCCCC2)c(=O)[nH]c1=O
REMARK SMILES IDX 7 1 6 2 3 3 2 5 1 6 4 7 5 8 8 9 9 10 10 11 23 12 11 13 24 14
REMARK SMILES IDX 22 15 13 16 20 17 21 18 12 20 14 22 15 23 19 24 16 25 18 26
REMARK SMILES IDX 17 27
REMARK H PARENT 3 4 22 19 12 21
ROOT
ATOM      1  C   UNL     1      46.940  59.766  18.302  1.00  0.00    +0.203 C 
ENDROOT
BRANCH   1   2
ATOM      2  C   UNL     1      47.340  61.251  18.237  1.00  0.00    +0.286 C 
BRANCH   2   3
ATOM      3  N   UNL     1      46.277  62.162  18.845  1.00  0.00    -0.334 N 
ATOM      4  H   UNL     1      46.631  62.450  19.765  1.00  0.00    +0.348 HD
BRANCH   3   5
ATOM      5  C   UNL     1      44.958  61.445  19.056  1.00  0.00    +0.258 C 
ATOM      6  C   UNL     1      43.863  62.446  19.377  1.00  0.00    +0.071 C 
ENDBRANCH   3   5
BRANCH   3   7
ATOM      7  C   UNL     1      46.110  63.429  18.016  1.00  0.00    +0.258 C 
ATOM      8  C   UNL     1      47.404  63.764  17.297  1.00  0.00    +0.071 C 
ENDBRANCH   3   7
ENDBRANCH   2   3
ENDBRANCH   1   2
BRANCH   1   9
ATOM      9  N   UNL     1      48.105  59.021  18.769  1.00  0.00    -0.286 NA
ATOM     10  C   UNL     1      47.941  58.338  19.849  1.00  0.00    +0.124 C 
BRANCH  10  11
ATOM     11  C   UNL     1      49.024  57.567  20.507  1.00  0.00    +0.118 C 
ATOM     12  C   UNL     1      49.518  57.878  21.862  1.00  0.00    +0.266 C 
ATOM     13  C   UNL     1      49.560  56.508  19.879  1.00  0.00    +0.210 C 
ATOM     14  O   UNL     1      48.937  58.630  22.637  1.00  0.00    -0.268 OA
ATOM     15  N   UNL     1      50.673  57.250  22.217  1.00  0.00    -0.273 N 
ATOM     16  N   UNL     1      50.534  55.705  20.466  1.00  0.00    -0.261 N 
ATOM     17  C   UNL     1      51.105  56.070  21.688  1.00  0.00    +0.331 C 
ATOM     18  O   UNL     1      51.931  55.409  22.311  1.00  0.00    -0.248 OA
ATOM     19  H   UNL     1      51.001  57.429  23.155  1.00  0.00    +0.175 HD
BRANCH  13  20
ATOM     20  O   UNL     1      49.166  56.194  18.595  1.00  0.00    -0.494 OA
ATOM     21  H   UNL     1      49.898  55.697  18.189  1.00  0.00    +0.295 HD
ENDBRANCH  13  20
BRANCH  16  22
ATOM     22  C   UNL     1      50.903  54.384  19.891  1.00  0.00    +0.095 C 
ATOM     23  C   UNL     1      52.380  54.322  19.457  1.00  0.00    +0.026 C 
ATOM     24  C   UNL     1      50.528  53.202  20.808  1.00  0.00    +0.026 C 
ATOM     25  C   UNL     1      52.719  52.972  18.826  1.00  0.00    +0.002 C 
ATOM     26  C   UNL     1      50.884  51.865  20.159  1.00  0.00    +0.002 C 
ATOM     27  C   UNL     1      52.354  51.813  19.751  1.00  0.00    +0.000 C 
ENDBRANCH  16  22
ENDBRANCH  10  11
ENDBRANCH   1   9
TORSDOF 8
ENDMDL
MODEL 4
REMARK VINA RESULT:    -6.800      1.752      2.957
REMARK INTER + INTRA:         -10.401
REMARK INTER:                 -10.031
REMARK INTRA:                  -0.370
REMARK UNBOUND:                -0.619
REMARK SMILES CC[NH+](CC)CC/N=C/c1c(O)n(C2CCCCC2)c(=O)[nH]c1=O
REMARK SMILES IDX 7 1 6 2 3 3 2 5 1 6 4 7 5 8 8 9 9 10 10 11 23 12 11 13 24 14
REMARK SMILES IDX 22 15 13 16 20 17 21 18 12 20 14 22 15 23 19 24 16 25 18 26
REMARK SMILES IDX 17 27
REMARK H PARENT 3 4 22 19 12 21
ROOT
ATOM      1  C   UNL     1      51.643  54.087  22.438  1.00  0.00    +0.203 C 
ENDROOT
BRANCH   1   2
ATOM      2  C   UNL     1      51.640  55.558  22.891  1.00  0.00    +0.286 C 
BRANCH   2   3
ATOM      3  N   UNL     1      51.457  56.521  21.721  1.00  0.00    -0.334 N 
ATOM      4  H   UNL     1      51.105  55.960  20.935  1.00  0.00    +0.348 HD
BRANCH   3   5
ATOM      5  C   UNL     1      52.764  57.158  21.291  1.00  0.00    +0.258 C 
ATOM      6  C   UNL     1      52.747  58.645  21.596  1.00  0.00    +0.071 C 
ENDBRANCH   3   5
BRANCH   3   7
ATOM      7  C   UNL     1      50.392  57.563  22.037  1.00  0.00    +0.258 C 
ATOM      8  C   UNL     1      49.093  57.222  21.329  1.00  0.00    +0.071 C 
ENDBRANCH   3   7
ENDBRANCH   2   3
ENDBRANCH   1   2
BRANCH   1   9
ATOM      9  N   UNL     1      50.597  53.939  21.432  1.00  0.00    -0.286 NA
ATOM     10  C   UNL     1      50.962  53.416  20.312  1.00  0.00    +0.124 C 
BRANCH  10  11
ATOM     11  C   UNL     1      50.056  53.240  19.151  1.00  0.00    +0.118 C 
ATOM     12  C   UNL     1      49.525  54.375  18.372  1.00  0.00    +0.266 C 
ATOM     13  C   UNL     1      49.728  52.001  18.747  1.00  0.00    +0.210 C 
ATOM     14  O   UNL     1      49.957  55.518  18.463  1.00  0.00    -0.268 OA
ATOM     15  N   UNL     1      48.517  54.065  17.510  1.00  0.00    -0.273 N 
ATOM     16  N   UNL     1      48.934  51.766  17.628  1.00  0.00    -0.261 N 
ATOM     17  C   UNL     1      48.316  52.831  16.967  1.00  0.00    +0.331 C 
ATOM     18  O   UNL     1      47.640  52.735  15.947  1.00  0.00    -0.248 OA
ATOM     19  H   UNL     1      48.170  54.827  16.946  1.00  0.00    +0.175 HD
BRANCH  13  20
ATOM     20  O   UNL     1      50.163  50.905  19.461  1.00  0.00    -0.494 OA
ATOM     21  H   UNL     1      49.656  50.139  19.138  1.00  0.00    +0.295 HD
ENDBRANCH  13  20
BRANCH  16  22
ATOM     22  C   UNL     1      48.822  50.411  17.025  1.00  0.00    +0.095 C 
ATOM     23  C   UNL     1      47.407  49.819  17.166  1.00  0.00    +0.026 C 
ATOM     24  C   UNL     1      49.321  50.358  15.567  1.00  0.00    +0.026 C 
ATOM     25  C   UNL     1      47.333  48.409  16.582  1.00  0.00    +0.002 C 
ATOM     26  C   UNL     1      49.230  48.940  15.004  1.00  0.00    +0.002 C 
ATOM     27  C   UNL     1      47.818  48.374  15.135  1.00  0.00    +0.000 C 
ENDBRANCH  16  22
ENDBRANCH  10  11
ENDBRANCH   1   9
TORSDOF 8
ENDMDL
MODEL 5
REMARK VINA RESULT:    -6.478      1.999      2.677
REMARK INTER + INTRA:          -9.937
REMARK INTER:                  -9.700
REMARK INTRA:                  -0.237
REMARK UNBOUND:                -0.619
REMARK SMILES CC[NH+](CC)CC/N=C/c1c(O)n(C2CCCCC2)c(=O)[nH]c1=O
REMARK SMILES IDX 7 1 6 2 3 3 2 5 1 6 4 7 5 8 8 9 9 10 10 11 23 12 11 13 24 14
REMARK SMILES IDX 22 15 13 16 20 17 21 18 12 20 14 22 15 23 19 24 16 25 18 26
REMARK SMILES IDX 17 27
REMARK H PARENT 3 4 22 19 12 21
ROOT
ATOM      1  C   UNL     1      52.311  54.290  19.613  1.00  0.00    +0.203 C 
ENDROOT
BRANCH   1   2
ATOM      2  C   UNL     1      51.965  55.740  19.228  1.00  0.00    +0.286 C 
BRANCH   2   3
ATOM      3  N   UNL     1      50.659  56.210  19.862  1.00  0.00    -0.334 N 
ATOM      4  H   UNL     1      50.715  57.235  19.918  1.00  0.00    +0.348 HD
BRANCH   3   5
ATOM      5  C   UNL     1      50.478  55.674  21.269  1.00  0.00    +0.258 C 
ATOM      6  C   UNL     1      51.141  56.602  22.271  1.00  0.00    +0.071 C 
ENDBRANCH   3   5
BRANCH   3   7
ATOM      7  C   UNL     1      49.472  55.877  18.969  1.00  0.00    +0.258 C 
ATOM      8  C   UNL     1      48.541  54.903  19.668  1.00  0.00    +0.071 C 
ENDBRANCH   3   7
ENDBRANCH   2   3
ENDBRANCH   1   2
BRANCH   1   9
ATOM      9  N   UNL     1      51.976  53.445  18.471  1.00  0.00    -0.286 NA
ATOM     10  C   UNL     1      51.367  52.343  18.743  1.00  0.00    +0.124 C 
BRANCH  10  11
ATOM     11  C   UNL     1      50.999  51.331  17.723  1.00  0.00    +0.118 C 
ATOM     12  C   UNL     1      51.966  50.789  16.749  1.00  0.00    +0.266 C 
ATOM     13  C   UNL     1      49.749  50.841  17.696  1.00  0.00    +0.210 C 
ATOM     14  O   UNL     1      53.179  50.944  16.843  1.00  0.00    -0.268 OA
ATOM     15  N   UNL     1      51.420  50.071  15.729  1.00  0.00    -0.273 N 
ATOM     16  N   UNL     1      49.356  49.845  16.806  1.00  0.00    -0.261 N 
ATOM     17  C   UNL     1      50.222  49.425  15.793  1.00  0.00    +0.331 C 
ATOM     18  O   UNL     1      49.992  48.523  14.992  1.00  0.00    -0.248 OA
ATOM     19  H   UNL     1      52.076  49.665  15.076  1.00  0.00    +0.175 HD
BRANCH  13  20
ATOM     20  O   UNL     1      48.793  51.340  18.555  1.00  0.00    -0.494 OA
ATOM     21  H   UNL     1      48.021  51.576  18.011  1.00  0.00    +0.295 HD
ENDBRANCH  13  20
BRANCH  16  22
ATOM     22  C   UNL     1      48.074  49.112  16.977  1.00  0.00    +0.095 C 
ATOM     23  C   UNL     1      47.734  48.857  18.457  1.00  0.00    +0.026 C 
ATOM     24  C   UNL     1      46.898  49.771  16.227  1.00  0.00    +0.026 C 
ATOM     25  C   UNL     1      46.438  48.060  18.602  1.00  0.00    +0.002 C 
ATOM     26  C   UNL     1      45.614  48.960  16.393  1.00  0.00    +0.002 C 
ATOM     27  C   UNL     1      45.281  48.731  17.865  1.00  0.00    +0.000 C 
ENDBRANCH  16  22
ENDBRANCH  10  11
ENDBRANCH   1   9
TORSDOF 8
ENDMDL
