MODEL 1
REMARK VINA RESULT:    -8.185      0.000      0.000
REMARK INTER + INTRA:         -11.129
REMARK INTER:                 -10.577
REMARK INTRA:                  -0.552
REMARK UNBOUND:                -0.552
REMARK SMILES Cc1cc(C)cc(OCC(=O)NNC(=O)C(C)(C)C)c1
REMARK SMILES IDX 10 1 11 2 12 3 9 5 8 6 7 7 2 8 3 9 20 10 4 11 6 12 1 13 5 14
REMARK SMILES IDX 13 15 14 16 15 17 16 19 17 20 18 21 19 22
REMARK H PARENT 12 4 13 18
ROOT
ATOM      1  C   UNL     1      51.653  51.033  21.065  1.00  0.00    +0.276 C 
ATOM      2  O   UNL     1      52.726  51.447  20.625  1.00  0.00    -0.269 OA
ATOM      3  N   UNL     1      50.911  51.733  21.998  1.00  0.00    -0.265 N 
ATOM      4  H   UNL     1      49.910  51.522  22.064  1.00  0.00    +0.191 HD
ENDROOT
BRANCH   1   5
ATOM      5  C   UNL     1      51.060  49.686  20.667  1.00  0.00    +0.331 C 
BRANCH   5   6
ATOM      6  O   UNL     1      50.984  49.577  19.250  1.00  0.00    -0.484 OA
BRANCH   6   7
ATOM      7  C   UNL     1      49.782  49.868  18.666  1.00  0.00    +0.120 A 
ATOM      8  C   UNL     1      47.497  49.084  18.362  1.00  0.00    -0.047 A 
ATOM      9  C   UNL     1      47.223  50.217  17.588  1.00  0.00    +0.007 A 
ATOM     10  C   UNL     1      48.777  48.928  18.908  1.00  0.00    +0.049 A 
ATOM     11  C   UNL     1      48.214  51.177  17.349  1.00  0.00    -0.047 A 
ATOM     12  C   UNL     1      49.500  50.987  17.880  1.00  0.00    +0.049 A 
ATOM     13  C   UNL     1      46.421  48.081  18.653  1.00  0.00    +0.044 C 
ATOM     14  C   UNL     1      47.921  52.367  16.484  1.00  0.00    +0.044 C 
ENDBRANCH   6   7
ENDBRANCH   5   6
ENDBRANCH   1   5
BRANCH   3  15
ATOM     15  N   UNL     1      51.256  53.083  22.205  1.00  0.00    -0.267 N 
ATOM     16  C   UNL     1      50.658  54.017  21.378  1.00  0.00    +0.243 C 
ATOM     17  O   UNL     1      49.715  53.714  20.645  1.00  0.00    -0.273 OA
ATOM     18  H   UNL     1      52.198  53.229  22.566  1.00  0.00    +0.191 HD
BRANCH  16  19
ATOM     19  C   UNL     1      51.258  55.431  21.446  1.00  0.00    +0.042 C 
ATOM     20  C   UNL     1      51.802  55.704  22.856  1.00  0.00    +0.021 C 
ATOM     21  C   UNL     1      50.163  56.465  21.129  1.00  0.00    +0.021 C 
ATOM     22  C   UNL     1      52.383  55.570  20.411  1.00  0.00    +0.021 C 
ENDBRANCH  16  19
ENDBRANCH   3  15
TORSDOF 5
ENDMDL
MODEL 2
REMARK VINA RESULT:    -8.116      0.134      2.159
REMARK INTER + INTRA:         -11.040
REMARK INTER:                 -10.489
REMARK INTRA:                  -0.551
REMARK UNBOUND:                -0.552
REMARK SMILES Cc1cc(C)cc(OCC(=O)NNC(=O)C(C)(C)C)c1
REMARK SMILES IDX 10 1 11 2 12 3 9 5 8 6 7 7 2 8 3 9 20 10 4 11 6 12 1 13 5 14
REMARK SMILES IDX 13 15 14 16 15 17 16 19 17 20 18 21 19 22
REMARK H PARENT 12 4 13 18
ROOT
ATOM      1  C   UNL     1      51.667  51.053  21.000  1.00  0.00    +0.276 C 
ATOM      2  O   UNL     1      52.763  51.462  20.618  1.00  0.00    -0.269 OA
ATOM      3  N   UNL     1      50.891  51.745  21.911  1.00  0.00    -0.265 N 
ATOM      4  H   UNL     1      49.886  51.545  21.929  1.00  0.00    +0.191 HD
ENDROOT
BRANCH   1   5
ATOM      5  C   UNL     1      51.077  49.721  20.551  1.00  0.00    +0.331 C 
BRANCH   5   6
ATOM      6  O   UNL     1      50.939  49.692  19.135  1.00  0.00    -0.484 OA
BRANCH   6   7
ATOM      7  C   UNL     1      49.675  49.823  18.630  1.00  0.00    +0.120 A 
ATOM      8  C   UNL     1      48.210  51.272  17.333  1.00  0.00    -0.047 A 
ATOM      9  C   UNL     1      47.174  50.344  17.487  1.00  0.00    +0.007 A 
ATOM     10  C   UNL     1      49.461  50.993  17.897  1.00  0.00    +0.049 A 
ATOM     11  C   UNL     1      47.376  49.159  18.204  1.00  0.00    -0.047 A 
ATOM     12  C   UNL     1      48.629  48.912  18.789  1.00  0.00    +0.049 A 
ATOM     13  C   UNL     1      48.003  52.519  16.526  1.00  0.00    +0.044 C 
ATOM     14  C   UNL     1      46.247  48.190  18.398  1.00  0.00    +0.044 C 
ENDBRANCH   6   7
ENDBRANCH   5   6
ENDBRANCH   1   5
BRANCH   3  15
ATOM     15  N   UNL     1      51.242  53.087  22.159  1.00  0.00    -0.267 N 
ATOM     16  C   UNL     1      50.642  54.048  21.365  1.00  0.00    +0.243 C 
ATOM     17  O   UNL     1      49.695  53.771  20.627  1.00  0.00    -0.273 OA
ATOM     18  H   UNL     1      52.186  53.219  22.519  1.00  0.00    +0.191 HD
BRANCH  16  19
ATOM     19  C   UNL     1      51.247  55.458  21.474  1.00  0.00    +0.042 C 
ATOM     20  C   UNL     1      52.395  55.617  20.465  1.00  0.00    +0.021 C 
ATOM     21  C   UNL     1      51.803  55.665  22.894  1.00  0.00    +0.021 C 
ATOM     22  C   UNL     1      50.163  56.512  21.209  1.00  0.00    +0.021 C 
ENDBRANCH  16  19
ENDBRANCH   3  15
TORSDOF 5
ENDMDL
MODEL 3
REMARK VINA RESULT:    -7.973      2.854      7.127
REMARK INTER + INTRA:         -10.856
REMARK INTER:                 -10.438
REMARK INTRA:                  -0.417
REMARK UNBOUND:                -0.552
REMARK SMILES Cc1cc(C)cc(OCC(=O)NNC(=O)C(C)(C)C)c1
REMARK SMILES IDX 10 1 11 2 12 3 9 5 8 6 7 7 2 8 3 9 20 10 4 11 6 12 1 13 5 14
REMARK SMILES IDX 13 15 14 16 15 17 16 19 17 20 18 21 19 22
REMARK H PARENT 12 4 13 18
ROOT
ATOM      1  C   UNL     1      50.886  51.708  18.726  1.00  0.00    +0.276 C 
ATOM      2  O   UNL     1      51.731  50.817  18.825  1.00  0.00    -0.269 OA
ATOM      3  N   UNL     1      50.200  51.956  17.551  1.00  0.00    -0.265 N 
ATOM      4  H   UNL     1      49.306  52.452  17.619  1.00  0.00    +0.191 HD
ENDROOT
BRANCH   1   5
ATOM      5  C   UNL     1      50.550  52.660  19.868  1.00  0.00    +0.331 C 
BRANCH   5   6
ATOM      6  O   UNL     1      49.556  53.594  19.458  1.00  0.00    -0.484 OA
BRANCH   6   7
ATOM      7  C   UNL     1      49.525  54.796  20.110  1.00  0.00    +0.120 A 
ATOM      8  C   UNL     1      50.736  56.228  21.663  1.00  0.00    -0.047 A 
ATOM      9  C   UNL     1      49.716  57.181  21.561  1.00  0.00    +0.007 A 
ATOM     10  C   UNL     1      50.636  55.045  20.920  1.00  0.00    +0.049 A 
ATOM     11  C   UNL     1      48.604  56.954  20.742  1.00  0.00    -0.047 A 
ATOM     12  C   UNL     1      48.507  55.748  20.029  1.00  0.00    +0.049 A 
ATOM     13  C   UNL     1      51.946  56.494  22.507  1.00  0.00    +0.044 C 
ATOM     14  C   UNL     1      47.497  57.965  20.672  1.00  0.00    +0.044 C 
ENDBRANCH   6   7
ENDBRANCH   5   6
ENDBRANCH   1   5
BRANCH   3  15
ATOM     15  N   UNL     1      50.263  50.963  16.554  1.00  0.00    -0.267 N 
ATOM     16  C   UNL     1      49.132  50.781  15.779  1.00  0.00    +0.243 C 
ATOM     17  O   UNL     1      48.197  51.582  15.811  1.00  0.00    -0.273 OA
ATOM     18  H   UNL     1      50.881  50.181  16.771  1.00  0.00    +0.191 HD
BRANCH  16  19
ATOM     19  C   UNL     1      49.138  49.521  14.898  1.00  0.00    +0.042 C 
ATOM     20  C   UNL     1      48.841  48.280  15.753  1.00  0.00    +0.021 C 
ATOM     21  C   UNL     1      50.525  49.357  14.252  1.00  0.00    +0.021 C 
ATOM     22  C   UNL     1      48.089  49.658  13.785  1.00  0.00    +0.021 C 
ENDBRANCH  16  19
ENDBRANCH   3  15
TORSDOF 5
ENDMDL
MODEL 4
REMARK VINA RESULT:    -7.930      2.017      6.324
REMARK INTER + INTRA:         -10.801
REMARK INTER:                 -10.230
REMARK INTRA:                  -0.571
REMARK UNBOUND:                -0.552
REMARK SMILES Cc1cc(C)cc(OCC(=O)NNC(=O)C(C)(C)C)c1
REMARK SMILES IDX 10 1 11 2 12 3 9 5 8 6 7 7 2 8 3 9 20 10 4 11 6 12 1 13 5 14
REMARK SMILES IDX 13 15 14 16 15 17 16 19 17 20 18 21 19 22
REMARK H PARENT 12 4 13 18
ROOT
ATOM      1  C   UNL     1      51.011  49.719  20.136  1.00  0.00    +0.276 C 
ATOM      2  O   UNL     1      50.420  48.926  20.870  1.00  0.00    -0.269 OA
ATOM      3  N   UNL     1      50.824  49.746  18.766  1.00  0.00    -0.265 N 
ATOM      4  H   UNL     1      51.064  50.611  18.271  1.00  0.00    +0.191 HD
ENDROOT
BRANCH   1   5
ATOM      5  C   UNL     1      52.045  50.713  20.653  1.00  0.00    +0.331 C 
BRANCH   5   6
ATOM      6  O   UNL     1      51.487  51.514  21.689  1.00  0.00    -0.484 OA
BRANCH   6   7
ATOM      7  C   UNL     1      51.050  52.763  21.342  1.00  0.00    +0.120 A 
ATOM      8  C   UNL     1      51.294  55.139  21.815  1.00  0.00    -0.047 A 
ATOM      9  C   UNL     1      50.337  55.421  20.834  1.00  0.00    +0.007 A 
ATOM     10  C   UNL     1      51.653  53.806  22.050  1.00  0.00    +0.049 A 
ATOM     11  C   UNL     1      49.735  54.389  20.105  1.00  0.00    -0.047 A 
ATOM     12  C   UNL     1      50.085  53.057  20.377  1.00  0.00    +0.049 A 
ATOM     13  C   UNL     1      51.970  56.249  22.562  1.00  0.00    +0.044 C 
ATOM     14  C   UNL     1      48.680  54.700  19.084  1.00  0.00    +0.044 C 
ENDBRANCH   6   7
ENDBRANCH   5   6
ENDBRANCH   1   5
BRANCH   3  15
ATOM     15  N   UNL     1      49.707  49.052  18.261  1.00  0.00    -0.267 N 
ATOM     16  C   UNL     1      48.612  49.813  17.892  1.00  0.00    +0.243 C 
ATOM     17  O   UNL     1      48.683  51.040  17.806  1.00  0.00    -0.273 OA
ATOM     18  H   UNL     1      49.590  48.109  18.630  1.00  0.00    +0.191 HD
BRANCH  16  19
ATOM     19  C   UNL     1      47.327  49.017  17.609  1.00  0.00    +0.042 C 
ATOM     20  C   UNL     1      47.575  48.001  16.485  1.00  0.00    +0.021 C 
ATOM     21  C   UNL     1      46.215  49.984  17.168  1.00  0.00    +0.021 C 
ATOM     22  C   UNL     1      46.872  48.292  18.884  1.00  0.00    +0.021 C 
ENDBRANCH  16  19
ENDBRANCH   3  15
TORSDOF 5
ENDMDL
MODEL 5
REMARK VINA RESULT:    -7.685      2.877      7.184
REMARK INTER + INTRA:         -10.483
REMARK INTER:                 -10.103
REMARK INTRA:                  -0.380
REMARK UNBOUND:                -0.552
REMARK SMILES Cc1cc(C)cc(OCC(=O)NNC(=O)C(C)(C)C)c1
REMARK SMILES IDX 10 1 11 2 12 3 9 5 8 6 7 7 2 8 3 9 20 10 4 11 6 12 1 13 5 14
REMARK SMILES IDX 13 15 14 16 15 17 16 19 17 20 18 21 19 22
REMARK H PARENT 12 4 13 18
ROOT
ATOM      1  C   UNL     1      51.059  51.834  18.655  1.00  0.00    +0.276 C 
ATOM      2  O   UNL     1      52.108  51.197  18.552  1.00  0.00    -0.269 OA
ATOM      3  N   UNL     1      50.116  51.886  17.645  1.00  0.00    -0.265 N 
ATOM      4  H   UNL     1      49.156  52.131  17.904  1.00  0.00    +0.191 HD
ENDROOT
BRANCH   1   5
ATOM      5  C   UNL     1      50.717  52.672  19.882  1.00  0.00    +0.331 C 
BRANCH   5   6
ATOM      6  O   UNL     1      49.732  53.647  19.558  1.00  0.00    -0.484 OA
BRANCH   6   7
ATOM      7  C   UNL     1      49.830  54.861  20.181  1.00  0.00    +0.120 A 
ATOM      8  C   UNL     1      48.638  56.927  20.672  1.00  0.00    -0.047 A 
ATOM      9  C   UNL     1      49.758  57.394  21.368  1.00  0.00    +0.007 A 
ATOM     10  C   UNL     1      48.680  55.651  20.096  1.00  0.00    +0.049 A 
ATOM     11  C   UNL     1      50.912  56.609  21.477  1.00  0.00    -0.047 A 
ATOM     12  C   UNL     1      50.946  55.346  20.865  1.00  0.00    +0.049 A 
ATOM     13  C   UNL     1      47.388  57.752  20.596  1.00  0.00    +0.044 C 
ATOM     14  C   UNL     1      52.122  57.137  22.190  1.00  0.00    +0.044 C 
ENDBRANCH   6   7
ENDBRANCH   5   6
ENDBRANCH   1   5
BRANCH   3  15
ATOM     15  N   UNL     1      50.238  50.938  16.610  1.00  0.00    -0.267 N 
ATOM     16  C   UNL     1      49.141  50.768  15.785  1.00  0.00    +0.243 C 
ATOM     17  O   UNL     1      48.188  51.549  15.814  1.00  0.00    -0.273 OA
ATOM     18  H   UNL     1      50.864  50.160  16.818  1.00  0.00    +0.191 HD
BRANCH  16  19
ATOM     19  C   UNL     1      49.207  49.547  14.852  1.00  0.00    +0.042 C 
ATOM     20  C   UNL     1      48.161  49.681  13.736  1.00  0.00    +0.021 C 
ATOM     21  C   UNL     1      48.909  48.272  15.660  1.00  0.00    +0.021 C 
ATOM     22  C   UNL     1      50.613  49.430  14.246  1.00  0.00    +0.021 C 
ENDBRANCH  16  19
ENDBRANCH   3  15
TORSDOF 5
ENDMDL
