MODEL 1
REMARK VINA RESULT:    -8.933      0.000      0.000
REMARK INTER + INTRA:         -14.447
REMARK INTER:                 -13.632
REMARK INTRA:                  -0.815
REMARK UNBOUND:                -0.815
REMARK SMILES CC[C@@H](C)c1ccccc1OCC(=O)NNC(=O)c1ccc(NC(=O)C2CC2)cc1
REMARK SMILES IDX 12 1 11 2 10 3 5 4 6 5 7 6 9 7 8 8 3 9 4 10 2 11 1 12 13 13
REMARK SMILES IDX 14 14 15 15 16 17 17 18 18 19 19 21 20 22 30 23 21 24 29 25
REMARK SMILES IDX 22 26 23 27 24 28 25 29 26 31 27 32 28 33
REMARK H PARENT 15 16 16 20 23 30
ROOT
ATOM      1  C   UNL     1      48.810  55.386  17.905  1.00  0.00    +0.331 C 
ENDROOT
BRANCH   1   2
ATOM      2  O   UNL     1      48.594  55.093  19.282  1.00  0.00    -0.483 OA
BRANCH   2   3
ATOM      3  C   UNL     1      48.839  56.089  20.190  1.00  0.00    +0.123 A 
ATOM      4  C   UNL     1      50.009  55.949  20.968  1.00  0.00    -0.003 A 
ATOM      5  C   UNL     1      50.322  56.957  21.900  1.00  0.00    +0.008 A 
ATOM      6  C   UNL     1      49.489  58.061  22.074  1.00  0.00    +0.001 A 
ATOM      7  C   UNL     1      48.004  57.197  20.379  1.00  0.00    +0.047 A 
ATOM      8  C   UNL     1      48.330  58.179  21.316  1.00  0.00    +0.004 A 
BRANCH   4   9
ATOM      9  C   UNL     1      50.940  54.750  20.799  1.00  0.00    +0.019 C 
ATOM     10  C   UNL     1      51.585  54.360  22.137  1.00  0.00    +0.013 C 
BRANCH   9  11
ATOM     11  C   UNL     1      52.026  54.995  19.731  1.00  0.00    +0.005 C 
ATOM     12  C   UNL     1      52.553  53.706  19.111  1.00  0.00    +0.004 C 
ENDBRANCH   9  11
ENDBRANCH   4   9
ENDBRANCH   2   3
ENDBRANCH   1   2
BRANCH   1  13
ATOM     13  C   UNL     1      48.232  54.272  17.040  1.00  0.00    +0.276 C 
ATOM     14  O   UNL     1      47.862  54.450  15.879  1.00  0.00    -0.269 OA
ATOM     15  N   UNL     1      48.210  53.032  17.650  1.00  0.00    -0.264 N 
ATOM     16  H   UNL     1      48.197  53.013  18.674  1.00  0.00    +0.191 HD
BRANCH  15  17
ATOM     17  N   UNL     1      47.448  52.027  17.024  1.00  0.00    -0.263 N 
ATOM     18  C   UNL     1      47.807  50.718  17.296  1.00  0.00    +0.269 C 
ATOM     19  O   UNL     1      48.841  50.418  17.886  1.00  0.00    -0.267 OA
ATOM     20  H   UNL     1      46.471  52.271  16.864  1.00  0.00    +0.191 HD
BRANCH  18  21
ATOM     21  C   UNL     1      46.841  49.671  16.867  1.00  0.00    +0.041 A 
ATOM     22  C   UNL     1      45.688  49.381  17.603  1.00  0.00    +0.016 A 
ATOM     23  C   UNL     1      47.094  48.972  15.683  1.00  0.00    +0.016 A 
ATOM     24  C   UNL     1      44.805  48.384  17.165  1.00  0.00    +0.027 A 
ATOM     25  C   UNL     1      46.213  47.975  15.253  1.00  0.00    +0.027 A 
ATOM     26  C   UNL     1      45.062  47.671  15.992  1.00  0.00    +0.041 A 
BRANCH  26  27
ATOM     27  N   UNL     1      44.225  46.653  15.494  1.00  0.00    -0.326 N 
ATOM     28  C   UNL     1      43.236  46.772  14.543  1.00  0.00    +0.227 C 
ATOM     29  O   UNL     1      42.879  47.775  13.947  1.00  0.00    -0.274 OA
ATOM     30  H   UNL     1      44.369  45.725  15.872  1.00  0.00    +0.169 HD
BRANCH  28  31
ATOM     31  C   UNL     1      42.542  45.482  14.266  1.00  0.00    +0.079 C 
ATOM     32  C   UNL     1      41.075  45.346  14.611  1.00  0.00    +0.014 C 
ATOM     33  C   UNL     1      41.504  45.357  13.174  1.00  0.00    +0.014 C 
ENDBRANCH  28  31
ENDBRANCH  26  27
ENDBRANCH  18  21
ENDBRANCH  15  17
ENDBRANCH   1  13
TORSDOF 9
ENDMDL
MODEL 2
REMARK VINA RESULT:    -8.641      1.807      2.340
REMARK INTER + INTRA:         -14.002
REMARK INTER:                 -13.639
REMARK INTRA:                  -0.363
REMARK UNBOUND:                -0.815
REMARK SMILES CC[C@@H](C)c1ccccc1OCC(=O)NNC(=O)c1ccc(NC(=O)C2CC2)cc1
REMARK SMILES IDX 12 1 11 2 10 3 5 4 6 5 7 6 9 7 8 8 3 9 4 10 2 11 1 12 13 13
REMARK SMILES IDX 14 14 15 15 16 17 17 18 18 19 19 21 20 22 30 23 21 24 29 25
REMARK SMILES IDX 22 26 23 27 24 28 25 29 26 31 27 32 28 33
REMARK H PARENT 15 16 16 20 23 30
ROOT
ATOM      1  C   UNL     1      51.010  54.348  19.331  1.00  0.00    +0.331 C 
ENDROOT
BRANCH   1   2
ATOM      2  O   UNL     1      50.813  55.704  18.945  1.00  0.00    -0.483 OA
BRANCH   2   3
ATOM      3  C   UNL     1      49.953  56.460  19.696  1.00  0.00    +0.123 A 
ATOM      4  C   UNL     1      50.416  56.849  20.972  1.00  0.00    -0.003 A 
ATOM      5  C   UNL     1      49.582  57.648  21.777  1.00  0.00    +0.008 A 
ATOM      6  C   UNL     1      48.315  58.034  21.342  1.00  0.00    +0.001 A 
ATOM      7  C   UNL     1      48.675  56.845  19.272  1.00  0.00    +0.047 A 
ATOM      8  C   UNL     1      47.862  57.630  20.092  1.00  0.00    +0.004 A 
BRANCH   4   9
ATOM      9  C   UNL     1      51.799  56.441  21.476  1.00  0.00    +0.019 C 
ATOM     10  C   UNL     1      51.700  55.683  22.808  1.00  0.00    +0.013 C 
BRANCH   9  11
ATOM     11  C   UNL     1      52.753  57.645  21.614  1.00  0.00    +0.005 C 
ATOM     12  C   UNL     1      53.931  57.586  20.648  1.00  0.00    +0.004 C 
ENDBRANCH   9  11
ENDBRANCH   4   9
ENDBRANCH   2   3
ENDBRANCH   1   2
BRANCH   1  13
ATOM     13  C   UNL     1      50.237  53.424  18.398  1.00  0.00    +0.276 C 
ATOM     14  O   UNL     1      49.112  53.689  17.972  1.00  0.00    -0.269 OA
ATOM     15  N   UNL     1      50.929  52.287  18.023  1.00  0.00    -0.264 N 
ATOM     16  H   UNL     1      51.671  51.961  18.649  1.00  0.00    +0.191 HD
BRANCH  15  17
ATOM     17  N   UNL     1      50.187  51.268  17.395  1.00  0.00    -0.263 N 
ATOM     18  C   UNL     1      49.775  50.218  18.198  1.00  0.00    +0.269 C 
ATOM     19  O   UNL     1      50.179  50.057  19.346  1.00  0.00    -0.267 OA
ATOM     20  H   UNL     1      49.606  51.581  16.618  1.00  0.00    +0.191 HD
BRANCH  18  21
ATOM     21  C   UNL     1      48.766  49.298  17.607  1.00  0.00    +0.041 A 
ATOM     22  C   UNL     1      48.946  48.709  16.351  1.00  0.00    +0.016 A 
ATOM     23  C   UNL     1      47.615  49.006  18.344  1.00  0.00    +0.016 A 
ATOM     24  C   UNL     1      47.969  47.850  15.830  1.00  0.00    +0.027 A 
ATOM     25  C   UNL     1      46.641  48.152  17.817  1.00  0.00    +0.027 A 
ATOM     26  C   UNL     1      46.808  47.569  16.555  1.00  0.00    +0.041 A 
BRANCH  26  27
ATOM     27  N   UNL     1      45.782  46.722  16.093  1.00  0.00    -0.326 N 
ATOM     28  C   UNL     1      45.031  46.862  14.946  1.00  0.00    +0.227 C 
ATOM     29  O   UNL     1      45.095  47.745  14.107  1.00  0.00    -0.274 OA
ATOM     30  H   UNL     1      45.574  45.912  16.664  1.00  0.00    +0.169 HD
BRANCH  28  31
ATOM     31  C   UNL     1      44.021  45.779  14.780  1.00  0.00    +0.079 C 
ATOM     32  C   UNL     1      42.563  46.147  14.624  1.00  0.00    +0.014 C 
ATOM     33  C   UNL     1      43.307  45.553  13.466  1.00  0.00    +0.014 C 
ENDBRANCH  28  31
ENDBRANCH  26  27
ENDBRANCH  18  21
ENDBRANCH  15  17
ENDBRANCH   1  13
TORSDOF 9
ENDMDL
MODEL 3
REMARK VINA RESULT:    -8.575      3.544     10.464
REMARK INTER + INTRA:         -13.901
REMARK INTER:                 -13.021
REMARK INTRA:                  -0.879
REMARK UNBOUND:                -0.815
REMARK SMILES CC[C@@H](C)c1ccccc1OCC(=O)NNC(=O)c1ccc(NC(=O)C2CC2)cc1
REMARK SMILES IDX 12 1 11 2 10 3 5 4 6 5 7 6 9 7 8 8 3 9 4 10 2 11 1 12 13 13
REMARK SMILES IDX 14 14 15 15 16 17 17 18 18 19 19 21 20 22 30 23 21 24 29 25
REMARK SMILES IDX 22 26 23 27 24 28 25 29 26 31 27 32 28 33
REMARK H PARENT 15 16 16 20 23 30
ROOT
ATOM      1  C   UNL     1      50.978  51.380  18.918  1.00  0.00    +0.331 C 
ENDROOT
BRANCH   1   2
ATOM      2  O   UNL     1      49.774  50.706  18.565  1.00  0.00    -0.483 OA
BRANCH   2   3
ATOM      3  C   UNL     1      49.637  50.287  17.268  1.00  0.00    +0.123 A 
ATOM      4  C   UNL     1      48.367  49.789  16.906  1.00  0.00    -0.003 A 
ATOM      5  C   UNL     1      48.162  49.367  15.578  1.00  0.00    +0.008 A 
ATOM      6  C   UNL     1      49.192  49.417  14.640  1.00  0.00    +0.001 A 
ATOM      7  C   UNL     1      50.667  50.324  16.321  1.00  0.00    +0.047 A 
ATOM      8  C   UNL     1      50.444  49.892  15.013  1.00  0.00    +0.004 A 
BRANCH   4   9
ATOM      9  C   UNL     1      47.220  49.722  17.912  1.00  0.00    +0.019 C 
ATOM     10  C   UNL     1      47.307  48.449  18.766  1.00  0.00    +0.013 C 
BRANCH   9  11
ATOM     11  C   UNL     1      45.837  49.818  17.234  1.00  0.00    +0.005 C 
ATOM     12  C   UNL     1      44.955  48.605  17.504  1.00  0.00    +0.004 C 
ENDBRANCH   9  11
ENDBRANCH   4   9
ENDBRANCH   2   3
ENDBRANCH   1   2
BRANCH   1  13
ATOM     13  C   UNL     1      50.800  52.884  18.749  1.00  0.00    +0.276 C 
ATOM     14  O   UNL     1      51.716  53.634  18.408  1.00  0.00    -0.269 OA
ATOM     15  N   UNL     1      49.507  53.330  18.957  1.00  0.00    -0.264 N 
ATOM     16  H   UNL     1      48.902  52.755  19.551  1.00  0.00    +0.191 HD
BRANCH  15  17
ATOM     17  N   UNL     1      49.326  54.720  19.089  1.00  0.00    -0.263 N 
ATOM     18  C   UNL     1      48.667  55.359  18.053  1.00  0.00    +0.269 C 
ATOM     19  O   UNL     1      48.414  54.811  16.983  1.00  0.00    -0.267 OA
ATOM     20  H   UNL     1      49.217  55.047  20.048  1.00  0.00    +0.191 HD
BRANCH  18  21
ATOM     21  C   UNL     1      48.231  56.757  18.316  1.00  0.00    +0.041 A 
ATOM     22  C   UNL     1      47.767  57.593  17.296  1.00  0.00    +0.016 A 
ATOM     23  C   UNL     1      48.275  57.234  19.629  1.00  0.00    +0.016 A 
ATOM     24  C   UNL     1      47.369  58.905  17.587  1.00  0.00    +0.027 A 
ATOM     25  C   UNL     1      47.881  58.546  19.914  1.00  0.00    +0.027 A 
ATOM     26  C   UNL     1      47.427  59.393  18.895  1.00  0.00    +0.041 A 
BRANCH  26  27
ATOM     27  N   UNL     1      47.050  60.700  19.262  1.00  0.00    -0.326 N 
ATOM     28  C   UNL     1      45.785  61.246  19.237  1.00  0.00    +0.227 C 
ATOM     29  O   UNL     1      44.743  60.716  18.887  1.00  0.00    -0.274 OA
ATOM     30  H   UNL     1      47.790  61.308  19.588  1.00  0.00    +0.169 HD
BRANCH  28  31
ATOM     31  C   UNL     1      45.759  62.666  19.686  1.00  0.00    +0.079 C 
ATOM     32  C   UNL     1      45.712  63.767  18.649  1.00  0.00    +0.014 C 
ATOM     33  C   UNL     1      44.524  63.525  19.533  1.00  0.00    +0.014 C 
ENDBRANCH  28  31
ENDBRANCH  26  27
ENDBRANCH  18  21
ENDBRANCH  15  17
ENDBRANCH   1  13
TORSDOF 9
ENDMDL
MODEL 4
REMARK VINA RESULT:    -8.258      4.889     10.434
REMARK INTER + INTRA:         -13.418
REMARK INTER:                 -12.425
REMARK INTRA:                  -0.993
REMARK UNBOUND:                -0.815
REMARK SMILES CC[C@@H](C)c1ccccc1OCC(=O)NNC(=O)c1ccc(NC(=O)C2CC2)cc1
REMARK SMILES IDX 12 1 11 2 10 3 5 4 6 5 7 6 9 7 8 8 3 9 4 10 2 11 1 12 13 13
REMARK SMILES IDX 14 14 15 15 16 17 17 18 18 19 19 21 20 22 30 23 21 24 29 25
REMARK SMILES IDX 22 26 23 27 24 28 25 29 26 31 27 32 28 33
REMARK H PARENT 15 16 16 20 23 30
ROOT
ATOM      1  C   UNL     1      52.037  53.392  19.200  1.00  0.00    +0.331 C 
ENDROOT
BRANCH   1   2
ATOM      2  O   UNL     1      51.307  52.555  18.309  1.00  0.00    -0.483 OA
BRANCH   2   3
ATOM      3  C   UNL     1      50.820  51.373  18.802  1.00  0.00    +0.123 A 
ATOM      4  C   UNL     1      49.887  50.696  17.988  1.00  0.00    -0.003 A 
ATOM      5  C   UNL     1      49.372  49.464  18.434  1.00  0.00    +0.008 A 
ATOM      6  C   UNL     1      49.754  48.926  19.663  1.00  0.00    +0.001 A 
ATOM      7  C   UNL     1      51.190  50.830  20.038  1.00  0.00    +0.047 A 
ATOM      8  C   UNL     1      50.660  49.611  20.465  1.00  0.00    +0.004 A 
BRANCH   4   9
ATOM      9  C   UNL     1      49.449  51.260  16.637  1.00  0.00    +0.019 C 
ATOM     10  C   UNL     1      48.205  52.147  16.786  1.00  0.00    +0.013 C 
BRANCH   9  11
ATOM     11  C   UNL     1      49.197  50.154  15.592  1.00  0.00    +0.005 C 
ATOM     12  C   UNL     1      50.428  49.836  14.751  1.00  0.00    +0.004 C 
ENDBRANCH   9  11
ENDBRANCH   4   9
ENDBRANCH   2   3
ENDBRANCH   1   2
BRANCH   1  13
ATOM     13  C   UNL     1      51.532  54.826  19.097  1.00  0.00    +0.276 C 
ATOM     14  O   UNL     1      52.273  55.806  19.189  1.00  0.00    -0.269 OA
ATOM     15  N   UNL     1      50.179  54.934  18.835  1.00  0.00    -0.264 N 
ATOM     16  H   UNL     1      49.583  54.147  19.107  1.00  0.00    +0.191 HD
BRANCH  15  17
ATOM     17  N   UNL     1      49.598  56.207  18.999  1.00  0.00    -0.263 N 
ATOM     18  C   UNL     1      48.695  56.604  18.027  1.00  0.00    +0.269 C 
ATOM     19  O   UNL     1      48.535  55.993  16.974  1.00  0.00    -0.267 OA
ATOM     20  H   UNL     1      49.472  56.497  19.968  1.00  0.00    +0.191 HD
BRANCH  18  21
ATOM     21  C   UNL     1      47.881  57.809  18.343  1.00  0.00    +0.041 A 
ATOM     22  C   UNL     1      47.744  58.290  19.648  1.00  0.00    +0.016 A 
ATOM     23  C   UNL     1      47.250  58.483  17.293  1.00  0.00    +0.016 A 
ATOM     24  C   UNL     1      46.964  59.426  19.902  1.00  0.00    +0.027 A 
ATOM     25  C   UNL     1      46.470  59.614  17.552  1.00  0.00    +0.027 A 
ATOM     26  C   UNL     1      46.318  60.094  18.859  1.00  0.00    +0.041 A 
BRANCH  26  27
ATOM     27  N   UNL     1      45.515  61.237  19.039  1.00  0.00    -0.326 N 
ATOM     28  C   UNL     1      45.890  62.450  19.573  1.00  0.00    +0.227 C 
ATOM     29  O   UNL     1      46.984  62.778  20.004  1.00  0.00    -0.274 OA
ATOM     30  H   UNL     1      44.552  61.164  18.735  1.00  0.00    +0.169 HD
BRANCH  28  31
ATOM     31  C   UNL     1      44.771  63.433  19.619  1.00  0.00    +0.079 C 
ATOM     32  C   UNL     1      44.466  64.262  18.391  1.00  0.00    +0.014 C 
ATOM     33  C   UNL     1      43.491  63.217  18.845  1.00  0.00    +0.014 C 
ENDBRANCH  28  31
ENDBRANCH  26  27
ENDBRANCH  18  21
ENDBRANCH  15  17
ENDBRANCH   1  13
TORSDOF 9
ENDMDL
MODEL 5
REMARK VINA RESULT:    -8.170      6.238      9.924
REMARK INTER + INTRA:         -13.283
REMARK INTER:                 -12.354
REMARK INTRA:                  -0.929
REMARK UNBOUND:                -0.815
REMARK SMILES CC[C@@H](C)c1ccccc1OCC(=O)NNC(=O)c1ccc(NC(=O)C2CC2)cc1
REMARK SMILES IDX 12 1 11 2 10 3 5 4 6 5 7 6 9 7 8 8 3 9 4 10 2 11 1 12 13 13
REMARK SMILES IDX 14 14 15 15 16 17 17 18 18 19 19 21 20 22 30 23 21 24 29 25
REMARK SMILES IDX 22 26 23 27 24 28 25 29 26 31 27 32 28 33
REMARK H PARENT 15 16 16 20 23 30
ROOT
ATOM      1  C   UNL     1      46.100  61.676  19.139  1.00  0.00    +0.331 C 
ENDROOT
BRANCH   1   2
ATOM      2  O   UNL     1      45.663  62.134  17.863  1.00  0.00    -0.483 OA
BRANCH   2   3
ATOM      3  C   UNL     1      45.868  63.454  17.558  1.00  0.00    +0.123 A 
ATOM      4  C   UNL     1      44.708  64.244  17.401  1.00  0.00    -0.003 A 
ATOM      5  C   UNL     1      44.860  65.613  17.111  1.00  0.00    +0.008 A 
ATOM      6  C   UNL     1      46.124  66.181  16.959  1.00  0.00    +0.001 A 
ATOM      7  C   UNL     1      47.132  64.032  17.393  1.00  0.00    +0.047 A 
ATOM      8  C   UNL     1      47.259  65.390  17.096  1.00  0.00    +0.004 A 
BRANCH   4   9
ATOM      9  C   UNL     1      43.311  63.649  17.562  1.00  0.00    +0.019 C 
ATOM     10  C   UNL     1      42.295  64.377  16.670  1.00  0.00    +0.013 C 
BRANCH   9  11
ATOM     11  C   UNL     1      42.835  63.654  19.030  1.00  0.00    +0.005 C 
ATOM     12  C   UNL     1      42.532  62.258  19.562  1.00  0.00    +0.004 C 
ENDBRANCH   9  11
ENDBRANCH   4   9
ENDBRANCH   2   3
ENDBRANCH   1   2
BRANCH   1  13
ATOM     13  C   UNL     1      47.183  60.617  18.968  1.00  0.00    +0.276 C 
ATOM     14  O   UNL     1      48.053  60.683  18.099  1.00  0.00    -0.269 OA
ATOM     15  N   UNL     1      47.139  59.603  19.907  1.00  0.00    -0.264 N 
ATOM     16  H   UNL     1      46.238  59.419  20.357  1.00  0.00    +0.191 HD
BRANCH  15  17
ATOM     17  N   UNL     1      47.924  58.463  19.650  1.00  0.00    -0.263 N 
ATOM     18  C   UNL     1      48.503  57.850  20.749  1.00  0.00    +0.269 C 
ATOM     19  O   UNL     1      48.511  58.354  21.868  1.00  0.00    -0.267 OA
ATOM     20  H   UNL     1      47.621  57.907  18.851  1.00  0.00    +0.191 HD
BRANCH  18  21
ATOM     21  C   UNL     1      49.089  56.503  20.514  1.00  0.00    +0.041 A 
ATOM     22  C   UNL     1      50.271  56.090  21.137  1.00  0.00    +0.016 A 
ATOM     23  C   UNL     1      48.422  55.624  19.656  1.00  0.00    +0.016 A 
ATOM     24  C   UNL     1      50.791  54.813  20.886  1.00  0.00    +0.027 A 
ATOM     25  C   UNL     1      48.947  54.352  19.405  1.00  0.00    +0.027 A 
ATOM     26  C   UNL     1      50.137  53.937  20.016  1.00  0.00    +0.041 A 
BRANCH  26  27
ATOM     27  N   UNL     1      50.603  52.643  19.711  1.00  0.00    -0.326 N 
ATOM     28  C   UNL     1      51.699  52.304  18.947  1.00  0.00    +0.227 C 
ATOM     29  O   UNL     1      52.479  53.049  18.377  1.00  0.00    -0.274 OA
ATOM     30  H   UNL     1      50.078  51.871  20.101  1.00  0.00    +0.169 HD
BRANCH  28  31
ATOM     31  C   UNL     1      51.887  50.831  18.827  1.00  0.00    +0.079 C 
ATOM     32  C   UNL     1      52.739  50.110  19.848  1.00  0.00    +0.014 C 
ATOM     33  C   UNL     1      51.259  49.866  19.808  1.00  0.00    +0.014 C 
ENDBRANCH  28  31
ENDBRANCH  26  27
ENDBRANCH  18  21
ENDBRANCH  15  17
ENDBRANCH   1  13
TORSDOF 9
ENDMDL
