MODEL 1
REMARK VINA RESULT:    -9.333      0.000      0.000
REMARK INTER + INTRA:         -13.832
REMARK INTER:                 -13.153
REMARK INTRA:                  -0.680
REMARK UNBOUND:                -0.680
REMARK SMILES Cc1ccc(OCC(=O)NNC(=O)c2ccc(NC(=O)C3CCCCC3)cc2)cc1
REMARK SMILES IDX 8 1 9 2 10 3 7 5 6 6 5 7 2 8 3 9 30 10 4 11 29 12 1 13 11 14
REMARK SMILES IDX 12 15 13 16 14 18 15 19 28 20 16 21 27 22 17 23 18 24 19 25
REMARK SMILES IDX 20 26 21 28 22 29 26 30 23 31 25 32 24 33
REMARK H PARENT 10 4 11 17 18 27
ROOT
ATOM      1  C   UNL     1      51.775  53.047  20.029  1.00  0.00    +0.276 C 
ATOM      2  O   UNL     1      52.258  53.702  19.106  1.00  0.00    -0.269 OA
ATOM      3  N   UNL     1      50.642  53.444  20.707  1.00  0.00    -0.264 N 
ATOM      4  H   UNL     1      50.329  52.953  21.553  1.00  0.00    +0.191 HD
ENDROOT
BRANCH   1   5
ATOM      5  C   UNL     1      52.393  51.750  20.540  1.00  0.00    +0.331 C 
BRANCH   5   6
ATOM      6  O   UNL     1      52.337  50.748  19.526  1.00  0.00    -0.484 OA
BRANCH   6   7
ATOM      7  C   UNL     1      51.104  50.238  19.229  1.00  0.00    +0.120 A 
ATOM      8  C   UNL     1      48.558  49.372  18.401  1.00  0.00    -0.051 A 
ATOM      9  C   UNL     1      49.126  48.890  19.588  1.00  0.00    +0.007 A 
ATOM     10  C   UNL     1      49.277  50.292  17.630  1.00  0.00    +0.007 A 
ATOM     11  C   UNL     1      50.392  49.322  20.003  1.00  0.00    +0.047 A 
ATOM     12  C   UNL     1      50.536  50.727  18.051  1.00  0.00    +0.047 A 
ATOM     13  C   UNL     1      47.214  48.898  17.937  1.00  0.00    +0.044 C 
ENDBRANCH   6   7
ENDBRANCH   5   6
ENDBRANCH   1   5
BRANCH   3  14
ATOM     14  N   UNL     1      50.155  54.737  20.499  1.00  0.00    -0.263 N 
ATOM     15  C   UNL     1      49.173  54.908  19.543  1.00  0.00    +0.269 C 
ATOM     16  O   UNL     1      48.797  54.000  18.804  1.00  0.00    -0.267 OA
ATOM     17  H   UNL     1      50.270  55.376  21.286  1.00  0.00    +0.191 HD
BRANCH  15  18
ATOM     18  C   UNL     1      48.543  56.256  19.483  1.00  0.00    +0.041 A 
ATOM     19  C   UNL     1      48.235  56.796  18.228  1.00  0.00    +0.016 A 
ATOM     20  C   UNL     1      48.260  56.998  20.637  1.00  0.00    +0.016 A 
ATOM     21  C   UNL     1      47.618  58.050  18.124  1.00  0.00    +0.027 A 
ATOM     22  C   UNL     1      47.649  58.252  20.528  1.00  0.00    +0.027 A 
ATOM     23  C   UNL     1      47.312  58.785  19.272  1.00  0.00    +0.041 A 
BRANCH  23  24
ATOM     24  N   UNL     1      46.692  60.050  19.257  1.00  0.00    -0.326 N 
ATOM     25  C   UNL     1      47.164  61.217  18.683  1.00  0.00    +0.227 C 
ATOM     26  O   UNL     1      48.211  61.335  18.046  1.00  0.00    -0.274 OA
ATOM     27  H   UNL     1      45.779  60.093  19.691  1.00  0.00    +0.169 HD
BRANCH  25  28
ATOM     28  C   UNL     1      46.261  62.434  18.908  1.00  0.00    +0.079 C 
ATOM     29  C   UNL     1      44.858  62.006  19.359  1.00  0.00    +0.013 C 
ATOM     30  C   UNL     1      46.204  63.358  17.682  1.00  0.00    +0.013 C 
ATOM     31  C   UNL     1      43.957  63.214  19.606  1.00  0.00    +0.001 C 
ATOM     32  C   UNL     1      45.287  64.559  17.926  1.00  0.00    +0.001 C 
ATOM     33  C   UNL     1      43.891  64.123  18.377  1.00  0.00    +0.000 C 
ENDBRANCH  25  28
ENDBRANCH  23  24
ENDBRANCH  15  18
ENDBRANCH   3  14
TORSDOF 7
ENDMDL
MODEL 2
REMARK VINA RESULT:    -9.201      1.464      2.024
REMARK INTER + INTRA:         -13.646
REMARK INTER:                 -12.819
REMARK INTRA:                  -0.828
REMARK UNBOUND:                -0.680
REMARK SMILES Cc1ccc(OCC(=O)NNC(=O)c2ccc(NC(=O)C3CCCCC3)cc2)cc1
REMARK SMILES IDX 8 1 9 2 10 3 7 5 6 6 5 7 2 8 3 9 30 10 4 11 29 12 1 13 11 14
REMARK SMILES IDX 12 15 13 16 14 18 15 19 28 20 16 21 27 22 17 23 18 24 19 25
REMARK SMILES IDX 20 26 21 28 22 29 26 30 23 31 25 32 24 33
REMARK H PARENT 10 4 11 17 18 27
ROOT
ATOM      1  C   UNL     1      50.887  52.782  18.748  1.00  0.00    +0.276 C 
ATOM      2  O   UNL     1      51.807  53.491  18.342  1.00  0.00    -0.269 OA
ATOM      3  N   UNL     1      49.610  53.262  18.944  1.00  0.00    -0.264 N 
ATOM      4  H   UNL     1      48.891  52.690  19.403  1.00  0.00    +0.191 HD
ENDROOT
BRANCH   1   5
ATOM      5  C   UNL     1      51.069  51.311  19.108  1.00  0.00    +0.331 C 
BRANCH   5   6
ATOM      6  O   UNL     1      50.688  50.486  18.008  1.00  0.00    -0.484 OA
BRANCH   6   7
ATOM      7  C   UNL     1      49.401  50.026  18.000  1.00  0.00    +0.120 A 
ATOM      8  C   UNL     1      46.700  49.267  17.778  1.00  0.00    -0.051 A 
ATOM      9  C   UNL     1      47.514  48.728  18.783  1.00  0.00    +0.007 A 
ATOM     10  C   UNL     1      47.252  50.190  16.882  1.00  0.00    +0.007 A 
ATOM     11  C   UNL     1      48.858  49.107  18.897  1.00  0.00    +0.047 A 
ATOM     12  C   UNL     1      48.590  50.571  17.002  1.00  0.00    +0.047 A 
ATOM     13  C   UNL     1      45.268  48.850  17.634  1.00  0.00    +0.044 C 
ENDBRANCH   6   7
ENDBRANCH   5   6
ENDBRANCH   1   5
BRANCH   3  14
ATOM     14  N   UNL     1      49.400  54.643  18.901  1.00  0.00    -0.263 N 
ATOM     15  C   UNL     1      48.639  55.144  17.863  1.00  0.00    +0.269 C 
ATOM     16  O   UNL     1      48.240  54.448  16.931  1.00  0.00    -0.267 OA
ATOM     17  H   UNL     1      49.490  55.124  19.796  1.00  0.00    +0.191 HD
BRANCH  15  18
ATOM     18  C   UNL     1      48.274  56.586  17.955  1.00  0.00    +0.041 A 
ATOM     19  C   UNL     1      48.431  57.238  19.185  1.00  0.00    +0.016 A 
ATOM     20  C   UNL     1      47.775  57.299  16.858  1.00  0.00    +0.016 A 
ATOM     21  C   UNL     1      48.124  58.600  19.312  1.00  0.00    +0.027 A 
ATOM     22  C   UNL     1      47.466  58.658  16.992  1.00  0.00    +0.027 A 
ATOM     23  C   UNL     1      47.649  59.323  18.216  1.00  0.00    +0.041 A 
BRANCH  23  24
ATOM     24  N   UNL     1      47.319  60.693  18.257  1.00  0.00    -0.326 N 
ATOM     25  C   UNL     1      46.133  61.266  18.679  1.00  0.00    +0.227 C 
ATOM     26  O   UNL     1      45.160  60.660  19.130  1.00  0.00    -0.274 OA
ATOM     27  H   UNL     1      48.056  61.327  17.974  1.00  0.00    +0.169 HD
BRANCH  25  28
ATOM     28  C   UNL     1      46.088  62.790  18.532  1.00  0.00    +0.079 C 
ATOM     29  C   UNL     1      44.668  63.272  18.204  1.00  0.00    +0.013 C 
ATOM     30  C   UNL     1      47.113  63.311  17.513  1.00  0.00    +0.013 C 
ATOM     31  C   UNL     1      44.610  64.792  18.075  1.00  0.00    +0.001 C 
ATOM     32  C   UNL     1      47.041  64.835  17.374  1.00  0.00    +0.001 C 
ATOM     33  C   UNL     1      45.621  65.307  17.048  1.00  0.00    +0.000 C 
ENDBRANCH  25  28
ENDBRANCH  23  24
ENDBRANCH  15  18
ENDBRANCH   3  14
TORSDOF 7
ENDMDL
MODEL 3
REMARK VINA RESULT:    -8.855      5.489      8.899
REMARK INTER + INTRA:         -13.158
REMARK INTER:                 -12.172
REMARK INTRA:                  -0.986
REMARK UNBOUND:                -0.680
REMARK SMILES Cc1ccc(OCC(=O)NNC(=O)c2ccc(NC(=O)C3CCCCC3)cc2)cc1
REMARK SMILES IDX 8 1 9 2 10 3 7 5 6 6 5 7 2 8 3 9 30 10 4 11 29 12 1 13 11 14
REMARK SMILES IDX 12 15 13 16 14 18 15 19 28 20 16 21 27 22 17 23 18 24 19 25
REMARK SMILES IDX 20 26 21 28 22 29 26 30 23 31 25 32 24 33
REMARK H PARENT 10 4 11 17 18 27
ROOT
ATOM      1  C   UNL     1      45.121  47.145  16.393  1.00  0.00    +0.276 C 
ATOM      2  O   UNL     1      44.503  48.155  16.728  1.00  0.00    -0.269 OA
ATOM      3  N   UNL     1      46.383  46.855  16.866  1.00  0.00    -0.264 N 
ATOM      4  H   UNL     1      46.931  46.078  16.478  1.00  0.00    +0.191 HD
ENDROOT
BRANCH   1   5
ATOM      5  C   UNL     1      44.572  46.127  15.397  1.00  0.00    +0.331 C 
BRANCH   5   6
ATOM      6  O   UNL     1      45.224  46.275  14.137  1.00  0.00    -0.484 OA
BRANCH   6   7
ATOM      7  C   UNL     1      44.724  47.226  13.292  1.00  0.00    +0.120 A 
ATOM      8  C   UNL     1      43.965  49.249  11.489  1.00  0.00    -0.051 A 
ATOM      9  C   UNL     1      43.006  48.591  12.270  1.00  0.00    +0.007 A 
ATOM     10  C   UNL     1      45.310  48.884  11.617  1.00  0.00    +0.007 A 
ATOM     11  C   UNL     1      43.383  47.586  13.171  1.00  0.00    +0.047 A 
ATOM     12  C   UNL     1      45.683  47.887  12.521  1.00  0.00    +0.047 A 
ATOM     13  C   UNL     1      43.569  50.310  10.507  1.00  0.00    +0.044 C 
ENDBRANCH   6   7
ENDBRANCH   5   6
ENDBRANCH   1   5
BRANCH   3  14
ATOM     14  N   UNL     1      47.079  47.844  17.567  1.00  0.00    -0.263 N 
ATOM     15  C   UNL     1      48.202  48.383  16.973  1.00  0.00    +0.269 C 
ATOM     16  O   UNL     1      48.668  47.956  15.918  1.00  0.00    -0.267 OA
ATOM     17  H   UNL     1      46.530  48.351  18.262  1.00  0.00    +0.191 HD
BRANCH  15  18
ATOM     18  C   UNL     1      48.803  49.562  17.656  1.00  0.00    +0.041 A 
ATOM     19  C   UNL     1      49.611  49.344  18.780  1.00  0.00    +0.016 A 
ATOM     20  C   UNL     1      48.580  50.872  17.215  1.00  0.00    +0.016 A 
ATOM     21  C   UNL     1      50.218  50.421  19.440  1.00  0.00    +0.027 A 
ATOM     22  C   UNL     1      49.184  51.945  17.881  1.00  0.00    +0.027 A 
ATOM     23  C   UNL     1      50.018  51.729  18.991  1.00  0.00    +0.041 A 
BRANCH  23  24
ATOM     24  N   UNL     1      50.591  52.866  19.595  1.00  0.00    -0.326 N 
ATOM     25  C   UNL     1      51.757  53.518  19.234  1.00  0.00    +0.227 C 
ATOM     26  O   UNL     1      52.482  53.226  18.283  1.00  0.00    -0.274 OA
ATOM     27  H   UNL     1      50.064  53.265  20.361  1.00  0.00    +0.169 HD
BRANCH  25  28
ATOM     28  C   UNL     1      52.125  54.690  20.149  1.00  0.00    +0.079 C 
ATOM     29  C   UNL     1      51.418  54.577  21.506  1.00  0.00    +0.013 C 
ATOM     30  C   UNL     1      51.868  56.054  19.488  1.00  0.00    +0.013 C 
ATOM     31  C   UNL     1      51.796  55.731  22.432  1.00  0.00    +0.001 C 
ATOM     32  C   UNL     1      52.232  57.209  20.425  1.00  0.00    +0.001 C 
ATOM     33  C   UNL     1      51.523  57.086  21.777  1.00  0.00    +0.000 C 
ENDBRANCH  25  28
ENDBRANCH  23  24
ENDBRANCH  15  18
ENDBRANCH   3  14
TORSDOF 7
ENDMDL
MODEL 4
REMARK VINA RESULT:    -8.631      1.417      2.459
REMARK INTER + INTRA:         -12.842
REMARK INTER:                 -11.917
REMARK INTRA:                  -0.925
REMARK UNBOUND:                -0.680
REMARK SMILES Cc1ccc(OCC(=O)NNC(=O)c2ccc(NC(=O)C3CCCCC3)cc2)cc1
REMARK SMILES IDX 8 1 9 2 10 3 7 5 6 6 5 7 2 8 3 9 30 10 4 11 29 12 1 13 11 14
REMARK SMILES IDX 12 15 13 16 14 18 15 19 28 20 16 21 27 22 17 23 18 24 19 25
REMARK SMILES IDX 20 26 21 28 22 29 26 30 23 31 25 32 24 33
REMARK H PARENT 10 4 11 17 18 27
ROOT
ATOM      1  C   UNL     1      51.127  55.038  20.924  1.00  0.00    +0.276 C 
ATOM      2  O   UNL     1      51.894  55.963  20.655  1.00  0.00    -0.269 OA
ATOM      3  N   UNL     1      49.778  55.088  20.649  1.00  0.00    -0.264 N 
ATOM      4  H   UNL     1      49.136  54.365  20.995  1.00  0.00    +0.191 HD
ENDROOT
BRANCH   1   5
ATOM      5  C   UNL     1      51.581  53.758  21.618  1.00  0.00    +0.331 C 
BRANCH   5   6
ATOM      6  O   UNL     1      52.211  52.889  20.679  1.00  0.00    -0.484 OA
BRANCH   6   7
ATOM      7  C   UNL     1      51.428  51.921  20.113  1.00  0.00    +0.120 A 
ATOM      8  C   UNL     1      49.887  49.764  19.171  1.00  0.00    -0.051 A 
ATOM      9  C   UNL     1      50.056  50.915  18.391  1.00  0.00    +0.007 A 
ATOM     10  C   UNL     1      50.496  49.701  20.429  1.00  0.00    +0.007 A 
ATOM     11  C   UNL     1      50.826  51.989  18.858  1.00  0.00    +0.047 A 
ATOM     12  C   UNL     1      51.269  50.770  20.888  1.00  0.00    +0.047 A 
ATOM     13  C   UNL     1      49.046  48.620  18.690  1.00  0.00    +0.044 C 
ENDBRANCH   6   7
ENDBRANCH   5   6
ENDBRANCH   1   5
BRANCH   3  14
ATOM     14  N   UNL     1      49.218  56.309  20.262  1.00  0.00    -0.263 N 
ATOM     15  C   UNL     1      48.783  56.432  18.957  1.00  0.00    +0.269 C 
ATOM     16  O   UNL     1      48.967  55.561  18.108  1.00  0.00    -0.267 OA
ATOM     17  H   UNL     1      48.833  56.871  21.022  1.00  0.00    +0.191 HD
BRANCH  15  18
ATOM     18  C   UNL     1      48.020  57.669  18.634  1.00  0.00    +0.041 A 
ATOM     19  C   UNL     1      47.808  58.609  19.651  1.00  0.00    +0.016 A 
ATOM     20  C   UNL     1      47.504  57.915  17.355  1.00  0.00    +0.016 A 
ATOM     21  C   UNL     1      47.118  59.801  19.387  1.00  0.00    +0.027 A 
ATOM     22  C   UNL     1      46.811  59.103  17.098  1.00  0.00    +0.027 A 
ATOM     23  C   UNL     1      46.621  60.062  18.108  1.00  0.00    +0.041 A 
BRANCH  23  24
ATOM     24  N   UNL     1      45.919  61.232  17.758  1.00  0.00    -0.326 N 
ATOM     25  C   UNL     1      46.435  62.500  17.557  1.00  0.00    +0.227 C 
ATOM     26  O   UNL     1      47.624  62.813  17.617  1.00  0.00    -0.274 OA
ATOM     27  H   UNL     1      44.925  61.115  17.607  1.00  0.00    +0.169 HD
BRANCH  25  28
ATOM     28  C   UNL     1      45.376  63.563  17.247  1.00  0.00    +0.079 C 
ATOM     29  C   UNL     1      45.983  64.973  17.276  1.00  0.00    +0.013 C 
ATOM     30  C   UNL     1      44.150  63.455  18.167  1.00  0.00    +0.013 C 
ATOM     31  C   UNL     1      44.938  66.038  16.949  1.00  0.00    +0.001 C 
ATOM     32  C   UNL     1      43.112  64.535  17.848  1.00  0.00    +0.001 C 
ATOM     33  C   UNL     1      43.726  65.937  17.878  1.00  0.00    +0.000 C 
ENDBRANCH  25  28
ENDBRANCH  23  24
ENDBRANCH  15  18
ENDBRANCH   3  14
TORSDOF 7
ENDMDL
MODEL 5
REMARK VINA RESULT:    -8.309      2.169     11.644
REMARK INTER + INTRA:         -12.388
REMARK INTER:                 -11.547
REMARK INTRA:                  -0.842
REMARK UNBOUND:                -0.680
REMARK SMILES Cc1ccc(OCC(=O)NNC(=O)c2ccc(NC(=O)C3CCCCC3)cc2)cc1
REMARK SMILES IDX 8 1 9 2 10 3 7 5 6 6 5 7 2 8 3 9 30 10 4 11 29 12 1 13 11 14
REMARK SMILES IDX 12 15 13 16 14 18 15 19 28 20 16 21 27 22 17 23 18 24 19 25
REMARK SMILES IDX 20 26 21 28 22 29 26 30 23 31 25 32 24 33
REMARK H PARENT 10 4 11 17 18 27
ROOT
ATOM      1  C   UNL     1      44.165  62.246  18.622  1.00  0.00    +0.276 C 
ATOM      2  O   UNL     1      43.697  61.421  17.838  1.00  0.00    -0.269 OA
ATOM      3  N   UNL     1      45.271  61.984  19.402  1.00  0.00    -0.264 N 
ATOM      4  H   UNL     1      45.569  62.635  20.140  1.00  0.00    +0.191 HD
ENDROOT
BRANCH   1   5
ATOM      5  C   UNL     1      43.555  63.627  18.838  1.00  0.00    +0.331 C 
BRANCH   5   6
ATOM      6  O   UNL     1      44.497  64.639  18.487  1.00  0.00    -0.484 OA
BRANCH   6   7
ATOM      7  C   UNL     1      44.860  64.715  17.171  1.00  0.00    +0.120 A 
ATOM      8  C   UNL     1      45.331  64.860  14.401  1.00  0.00    -0.051 A 
ATOM      9  C   UNL     1      46.397  64.747  15.302  1.00  0.00    +0.007 A 
ATOM     10  C   UNL     1      44.024  64.902  14.900  1.00  0.00    +0.007 A 
ATOM     11  C   UNL     1      46.165  64.672  16.682  1.00  0.00    +0.047 A 
ATOM     12  C   UNL     1      43.795  64.818  16.275  1.00  0.00    +0.047 A 
ATOM     13  C   UNL     1      45.571  64.965  12.925  1.00  0.00    +0.044 C 
ENDBRANCH   6   7
ENDBRANCH   5   6
ENDBRANCH   1   5
BRANCH   3  14
ATOM     14  N   UNL     1      45.742  60.670  19.479  1.00  0.00    -0.263 N 
ATOM     15  C   UNL     1      46.986  60.402  18.943  1.00  0.00    +0.269 C 
ATOM     16  O   UNL     1      47.636  61.236  18.315  1.00  0.00    -0.267 OA
ATOM     17  H   UNL     1      45.332  60.105  20.222  1.00  0.00    +0.191 HD
BRANCH  15  18
ATOM     18  C   UNL     1      47.536  59.044  19.213  1.00  0.00    +0.041 A 
ATOM     19  C   UNL     1      47.785  58.675  20.541  1.00  0.00    +0.016 A 
ATOM     20  C   UNL     1      47.818  58.136  18.184  1.00  0.00    +0.016 A 
ATOM     21  C   UNL     1      48.278  57.398  20.845  1.00  0.00    +0.027 A 
ATOM     22  C   UNL     1      48.315  56.865  18.492  1.00  0.00    +0.027 A 
ATOM     23  C   UNL     1      48.539  56.480  19.825  1.00  0.00    +0.041 A 
BRANCH  23  24
ATOM     24  N   UNL     1      49.034  55.179  20.044  1.00  0.00    -0.326 N 
ATOM     25  C   UNL     1      50.292  54.815  20.489  1.00  0.00    +0.227 C 
ATOM     26  O   UNL     1      51.195  55.588  20.809  1.00  0.00    -0.274 OA
ATOM     27  H   UNL     1      48.372  54.429  19.884  1.00  0.00    +0.169 HD
BRANCH  25  28
ATOM     28  C   UNL     1      50.518  53.301  20.555  1.00  0.00    +0.079 C 
ATOM     29  C   UNL     1      51.724  52.960  21.441  1.00  0.00    +0.013 C 
ATOM     30  C   UNL     1      50.641  52.666  19.161  1.00  0.00    +0.013 C 
ATOM     31  C   UNL     1      51.944  51.451  21.528  1.00  0.00    +0.001 C 
ATOM     32  C   UNL     1      50.879  51.155  19.252  1.00  0.00    +0.001 C 
ATOM     33  C   UNL     1      52.082  50.825  20.139  1.00  0.00    +0.000 C 
ENDBRANCH  25  28
ENDBRANCH  23  24
ENDBRANCH  15  18
ENDBRANCH   3  14
TORSDOF 7
ENDMDL
