MODEL 1
REMARK VINA RESULT:    -7.217      0.000      0.000
REMARK INTER + INTRA:         -10.944
REMARK INTER:                 -10.171
REMARK INTRA:                  -0.773
REMARK UNBOUND:                -0.773
REMARK SMILES C[C@H]1CCCC[C@@H]1NC(=O)CCCCCNC(N)=O
REMARK SMILES IDX 12 1 11 2 9 3 8 4 10 5 7 7 2 8 3 9 4 10 6 11 5 12 1 13 13 14
REMARK SMILES IDX 14 15 15 16 16 17 17 18 19 19 18 20
REMARK H PARENT 8 6 16 21 18 22 18 23
ROOT
ATOM      1  C   UNL     1      50.716  52.554  21.354  1.00  0.00    +0.010 C 
ENDROOT
BRANCH   1   2
ATOM      2  C   UNL     1      51.789  53.624  21.554  1.00  0.00    +0.100 C 
BRANCH   2   3
ATOM      3  C   UNL     1      51.456  54.951  20.894  1.00  0.00    +0.220 C 
ATOM      4  N   UNL     1      50.118  55.061  20.578  1.00  0.00    -0.353 N 
ATOM      5  O   UNL     1      52.281  55.829  20.674  1.00  0.00    -0.275 OA
ATOM      6  H   UNL     1      49.484  54.344  20.908  1.00  0.00    +0.163 HD
BRANCH   4   7
ATOM      7  C   UNL     1      49.539  56.279  20.018  1.00  0.00    +0.084 C 
ATOM      8  C   UNL     1      48.680  57.015  21.079  1.00  0.00    +0.008 C 
ATOM      9  C   UNL     1      47.523  57.817  20.449  1.00  0.00    +0.005 C 
ATOM     10  C   UNL     1      47.867  58.325  19.054  1.00  0.00    +0.000 C 
ATOM     11  C   UNL     1      48.708  55.927  18.781  1.00  0.00    +0.025 C 
ATOM     12  C   UNL     1      48.162  57.177  18.089  1.00  0.00    +0.002 C 
ATOM     13  C   UNL     1      49.553  57.924  21.952  1.00  0.00    +0.010 C 
ENDBRANCH   4   7
ENDBRANCH   2   3
ENDBRANCH   1   2
BRANCH   1  14
ATOM     14  C   UNL     1      51.290  51.134  21.411  1.00  0.00    +0.002 C 
BRANCH  14  15
ATOM     15  C   UNL     1      50.683  50.193  20.362  1.00  0.00    +0.021 C 
BRANCH  15  16
ATOM     16  C   UNL     1      50.369  50.851  19.022  1.00  0.00    +0.117 C 
BRANCH  16  17
ATOM     17  N   UNL     1      51.228  50.363  17.962  1.00  0.00    -0.338 N 
ATOM     18  C   UNL     1      52.349  51.063  17.622  1.00  0.00    +0.312 C 
ATOM     19  O   UNL     1      52.792  52.043  18.201  1.00  0.00    -0.249 OA
ATOM     20  N   UNL     1      52.962  50.538  16.530  1.00  0.00    -0.352 N 
ATOM     21  H   UNL     1      50.765  49.952  17.165  1.00  0.00    +0.165 HD
ATOM     22  H   UNL     1      53.858  50.971  16.348  1.00  0.00    +0.161 HD
ATOM     23  H   UNL     1      52.974  49.530  16.486  1.00  0.00    +0.161 HD
ENDBRANCH  16  17
ENDBRANCH  15  16
ENDBRANCH  14  15
ENDBRANCH   1  14
TORSDOF 7
ENDMDL
MODEL 2
REMARK VINA RESULT:    -7.066      2.325      3.534
REMARK INTER + INTRA:         -10.731
REMARK INTER:                 -10.116
REMARK INTRA:                  -0.615
REMARK UNBOUND:                -0.773
REMARK SMILES C[C@H]1CCCC[C@@H]1NC(=O)CCCCCNC(N)=O
REMARK SMILES IDX 12 1 11 2 9 3 8 4 10 5 7 7 2 8 3 9 4 10 6 11 5 12 1 13 13 14
REMARK SMILES IDX 14 15 15 16 16 17 17 18 19 19 18 20
REMARK H PARENT 8 6 16 21 18 22 18 23
ROOT
ATOM      1  C   UNL     1      47.760  52.685  17.478  1.00  0.00    +0.010 C 
ENDROOT
BRANCH   1   2
ATOM      2  C   UNL     1      48.073  53.821  16.504  1.00  0.00    +0.100 C 
BRANCH   2   3
ATOM      3  C   UNL     1      48.319  55.156  17.184  1.00  0.00    +0.220 C 
ATOM      4  N   UNL     1      48.691  55.015  18.505  1.00  0.00    -0.353 N 
ATOM      5  O   UNL     1      48.208  56.238  16.621  1.00  0.00    -0.275 OA
ATOM      6  H   UNL     1      48.882  54.084  18.854  1.00  0.00    +0.163 HD
BRANCH   4   7
ATOM      7  C   UNL     1      49.067  56.150  19.342  1.00  0.00    +0.084 C 
ATOM      8  C   UNL     1      50.267  55.783  20.254  1.00  0.00    +0.008 C 
ATOM      9  C   UNL     1      50.260  56.566  21.582  1.00  0.00    +0.005 C 
ATOM     10  C   UNL     1      49.624  57.943  21.436  1.00  0.00    +0.000 C 
ATOM     11  C   UNL     1      47.860  56.595  20.171  1.00  0.00    +0.025 C 
ATOM     12  C   UNL     1      48.164  57.849  20.991  1.00  0.00    +0.002 C 
ATOM     13  C   UNL     1      51.595  55.987  19.516  1.00  0.00    +0.010 C 
ENDBRANCH   4   7
ENDBRANCH   2   3
ENDBRANCH   1   2
BRANCH   1  14
ATOM     14  C   UNL     1      48.842  51.599  17.476  1.00  0.00    +0.002 C 
BRANCH  14  15
ATOM     15  C   UNL     1      50.031  51.928  18.386  1.00  0.00    +0.021 C 
BRANCH  15  16
ATOM     16  C   UNL     1      51.332  51.221  18.014  1.00  0.00    +0.117 C 
BRANCH  16  17
ATOM     17  N   UNL     1      51.482  49.958  18.708  1.00  0.00    -0.338 N 
ATOM     18  C   UNL     1      52.420  49.832  19.692  1.00  0.00    +0.312 C 
ATOM     19  O   UNL     1      53.110  50.729  20.151  1.00  0.00    -0.249 OA
ATOM     20  N   UNL     1      52.513  48.554  20.141  1.00  0.00    -0.352 N 
ATOM     21  H   UNL     1      51.389  49.125  18.145  1.00  0.00    +0.165 HD
ATOM     22  H   UNL     1      53.111  48.476  20.953  1.00  0.00    +0.161 HD
ATOM     23  H   UNL     1      51.636  48.061  20.226  1.00  0.00    +0.161 HD
ENDBRANCH  16  17
ENDBRANCH  15  16
ENDBRANCH  14  15
ENDBRANCH   1  14
TORSDOF 7
ENDMDL
MODEL 3
REMARK VINA RESULT:    -7.059      3.535      6.285
REMARK INTER + INTRA:         -10.721
REMARK INTER:                  -9.683
REMARK INTRA:                  -1.038
REMARK UNBOUND:                -0.773
REMARK SMILES C[C@H]1CCCC[C@@H]1NC(=O)CCCCCNC(N)=O
REMARK SMILES IDX 12 1 11 2 9 3 8 4 10 5 7 7 2 8 3 9 4 10 6 11 5 12 1 13 13 14
REMARK SMILES IDX 14 15 15 16 16 17 17 18 19 19 18 20
REMARK H PARENT 8 6 16 21 18 22 18 23
ROOT
ATOM      1  C   UNL     1      50.196  53.497  19.813  1.00  0.00    +0.010 C 
ENDROOT
BRANCH   1   2
ATOM      2  C   UNL     1      50.454  53.030  18.381  1.00  0.00    +0.100 C 
BRANCH   2   3
ATOM      3  C   UNL     1      49.249  52.377  17.726  1.00  0.00    +0.220 C 
ATOM      4  N   UNL     1      49.558  51.166  17.144  1.00  0.00    -0.353 N 
ATOM      5  O   UNL     1      48.127  52.868  17.720  1.00  0.00    -0.275 OA
ATOM      6  H   UNL     1      50.477  50.775  17.305  1.00  0.00    +0.163 HD
BRANCH   4   7
ATOM      7  C   UNL     1      48.548  50.308  16.531  1.00  0.00    +0.084 C 
ATOM      8  C   UNL     1      48.479  48.938  17.256  1.00  0.00    +0.008 C 
ATOM      9  C   UNL     1      48.041  47.795  16.319  1.00  0.00    +0.005 C 
ATOM     10  C   UNL     1      47.109  48.280  15.215  1.00  0.00    +0.000 C 
ATOM     11  C   UNL     1      48.865  50.129  15.044  1.00  0.00    +0.025 C 
ATOM     12  C   UNL     1      47.783  49.325  14.324  1.00  0.00    +0.002 C 
ATOM     13  C   UNL     1      47.558  49.015  18.480  1.00  0.00    +0.010 C 
ENDBRANCH   4   7
ENDBRANCH   2   3
ENDBRANCH   1   2
BRANCH   1  14
ATOM     14  C   UNL     1      51.493  53.757  20.586  1.00  0.00    +0.002 C 
BRANCH  14  15
ATOM     15  C   UNL     1      51.637  52.886  21.840  1.00  0.00    +0.021 C 
BRANCH  15  16
ATOM     16  C   UNL     1      51.147  51.450  21.678  1.00  0.00    +0.117 C 
BRANCH  16  17
ATOM     17  N   UNL     1      52.193  50.570  21.198  1.00  0.00    -0.338 N 
ATOM     18  C   UNL     1      51.959  49.760  20.126  1.00  0.00    +0.312 C 
ATOM     19  O   UNL     1      50.961  49.762  19.423  1.00  0.00    -0.249 OA
ATOM     20  N   UNL     1      52.995  48.913  19.896  1.00  0.00    -0.352 N 
ATOM     21  H   UNL     1      52.767  50.131  21.905  1.00  0.00    +0.165 HD
ATOM     22  H   UNL     1      52.886  48.399  19.031  1.00  0.00    +0.161 HD
ATOM     23  H   UNL     1      53.914  49.309  20.027  1.00  0.00    +0.161 HD
ENDBRANCH  16  17
ENDBRANCH  15  16
ENDBRANCH  14  15
ENDBRANCH   1  14
TORSDOF 7
ENDMDL
MODEL 4
REMARK VINA RESULT:    -6.955      2.759      4.189
REMARK INTER + INTRA:         -10.573
REMARK INTER:                  -9.889
REMARK INTRA:                  -0.685
REMARK UNBOUND:                -0.773
REMARK SMILES C[C@H]1CCCC[C@@H]1NC(=O)CCCCCNC(N)=O
REMARK SMILES IDX 12 1 11 2 9 3 8 4 10 5 7 7 2 8 3 9 4 10 6 11 5 12 1 13 13 14
REMARK SMILES IDX 14 15 15 16 16 17 17 18 19 19 18 20
REMARK H PARENT 8 6 16 21 18 22 18 23
ROOT
ATOM      1  C   UNL     1      46.959  50.931  17.266  1.00  0.00    +0.010 C 
ENDROOT
BRANCH   1   2
ATOM      2  C   UNL     1      48.010  51.653  16.424  1.00  0.00    +0.100 C 
BRANCH   2   3
ATOM      3  C   UNL     1      48.343  53.047  16.930  1.00  0.00    +0.220 C 
ATOM      4  N   UNL     1      48.877  53.031  18.202  1.00  0.00    -0.353 N 
ATOM      5  O   UNL     1      48.165  54.069  16.280  1.00  0.00    -0.275 OA
ATOM      6  H   UNL     1      49.109  52.138  18.616  1.00  0.00    +0.163 HD
BRANCH   4   7
ATOM      7  C   UNL     1      49.359  54.238  18.867  1.00  0.00    +0.084 C 
ATOM      8  C   UNL     1      50.515  53.901  19.845  1.00  0.00    +0.008 C 
ATOM      9  C   UNL     1      50.578  54.872  21.041  1.00  0.00    +0.005 C 
ATOM     10  C   UNL     1      50.079  56.265  20.679  1.00  0.00    +0.000 C 
ATOM     11  C   UNL     1      48.197  54.916  19.598  1.00  0.00    +0.025 C 
ATOM     12  C   UNL     1      48.618  56.244  20.228  1.00  0.00    +0.002 C 
ATOM     13  C   UNL     1      51.859  53.865  19.108  1.00  0.00    +0.010 C 
ENDBRANCH   4   7
ENDBRANCH   2   3
ENDBRANCH   1   2
BRANCH   1  14
ATOM     14  C   UNL     1      47.281  49.444  17.454  1.00  0.00    +0.002 C 
BRANCH  14  15
ATOM     15  C   UNL     1      48.782  49.164  17.599  1.00  0.00    +0.021 C 
BRANCH  15  16
ATOM     16  C   UNL     1      49.357  49.470  18.979  1.00  0.00    +0.117 C 
BRANCH  16  17
ATOM     17  N   UNL     1      50.680  48.906  19.154  1.00  0.00    -0.338 N 
ATOM     18  C   UNL     1      51.562  49.500  20.009  1.00  0.00    +0.312 C 
ATOM     19  O   UNL     1      51.325  50.433  20.758  1.00  0.00    -0.249 OA
ATOM     20  N   UNL     1      52.789  48.921  19.950  1.00  0.00    -0.352 N 
ATOM     21  H   UNL     1      51.123  48.540  18.323  1.00  0.00    +0.165 HD
ATOM     22  H   UNL     1      53.412  49.270  20.668  1.00  0.00    +0.161 HD
ATOM     23  H   UNL     1      52.789  47.916  19.857  1.00  0.00    +0.161 HD
ENDBRANCH  16  17
ENDBRANCH  15  16
ENDBRANCH  14  15
ENDBRANCH   1  14
TORSDOF 7
ENDMDL
MODEL 5
REMARK VINA RESULT:    -6.818      3.636      6.698
REMARK INTER + INTRA:         -10.381
REMARK INTER:                  -9.071
REMARK INTRA:                  -1.310
REMARK UNBOUND:                -0.773
REMARK SMILES C[C@H]1CCCC[C@@H]1NC(=O)CCCCCNC(N)=O
REMARK SMILES IDX 12 1 11 2 9 3 8 4 10 5 7 7 2 8 3 9 4 10 6 11 5 12 1 13 13 14
REMARK SMILES IDX 14 15 15 16 16 17 17 18 19 19 18 20
REMARK H PARENT 8 6 16 21 18 22 18 23
ROOT
ATOM      1  C   UNL     1      48.710  53.884  18.647  1.00  0.00    +0.010 C 
ENDROOT
BRANCH   1   2
ATOM      2  C   UNL     1      49.304  52.935  17.606  1.00  0.00    +0.100 C 
BRANCH   2   3
ATOM      3  C   UNL     1      48.910  51.482  17.810  1.00  0.00    +0.220 C 
ATOM      4  N   UNL     1      47.804  51.127  17.066  1.00  0.00    -0.353 N 
ATOM      5  O   UNL     1      49.511  50.711  18.547  1.00  0.00    -0.275 OA
ATOM      6  H   UNL     1      47.447  51.788  16.388  1.00  0.00    +0.163 HD
BRANCH   4   7
ATOM      7  C   UNL     1      47.290  49.761  17.026  1.00  0.00    +0.084 C 
ATOM      8  C   UNL     1      47.543  49.121  15.635  1.00  0.00    +0.008 C 
ATOM      9  C   UNL     1      46.476  48.071  15.266  1.00  0.00    +0.005 C 
ATOM     10  C   UNL     1      45.909  47.369  16.494  1.00  0.00    +0.000 C 
ATOM     11  C   UNL     1      45.797  49.768  17.367  1.00  0.00    +0.025 C 
ATOM     12  C   UNL     1      45.225  48.352  17.444  1.00  0.00    +0.002 C 
ATOM     13  C   UNL     1      48.948  48.511  15.564  1.00  0.00    +0.010 C 
ENDBRANCH   4   7
ENDBRANCH   2   3
ENDBRANCH   1   2
BRANCH   1  14
ATOM     14  C   UNL     1      49.777  54.477  19.573  1.00  0.00    +0.002 C 
BRANCH  14  15
ATOM     15  C   UNL     1      50.290  53.483  20.621  1.00  0.00    +0.021 C 
BRANCH  15  16
ATOM     16  C   UNL     1      51.781  53.171  20.528  1.00  0.00    +0.117 C 
BRANCH  16  17
ATOM     17  N   UNL     1      52.034  51.933  19.818  1.00  0.00    -0.338 N 
ATOM     18  C   UNL     1      52.608  51.967  18.581  1.00  0.00    +0.312 C 
ATOM     19  O   UNL     1      53.050  52.955  18.016  1.00  0.00    -0.249 OA
ATOM     20  N   UNL     1      52.651  50.736  18.010  1.00  0.00    -0.352 N 
ATOM     21  H   UNL     1      51.329  51.216  19.905  1.00  0.00    +0.165 HD
ATOM     22  H   UNL     1      53.186  50.729  17.151  1.00  0.00    +0.161 HD
ATOM     23  H   UNL     1      52.870  49.976  18.638  1.00  0.00    +0.161 HD
ENDBRANCH  16  17
ENDBRANCH  15  16
ENDBRANCH  14  15
ENDBRANCH   1  14
TORSDOF 7
ENDMDL
