MODEL 1
REMARK VINA RESULT:    -7.416      0.000      0.000
REMARK INTER + INTRA:         -11.765
REMARK INTER:                 -10.884
REMARK INTRA:                  -0.881
REMARK UNBOUND:                -0.881
REMARK SMILES CCNC(=S)Nc1cc(OCC)c(NC(=O)c2cccs2)cc1OCC
REMARK SMILES IDX 7 1 8 2 9 3 13 4 22 5 23 6 6 7 3 8 4 9 5 10 2 13 1 14 24 15
REMARK SMILES IDX 25 16 26 17 10 18 11 19 12 20 14 21 15 22 16 23 17 25 18 26
REMARK SMILES IDX 21 27 19 28 20 29
REMARK H PARENT 3 11 6 12 14 24
ROOT
ATOM      1  C   UNL     1      51.091  55.209  19.792  1.00  0.00    +0.087 A 
ATOM      2  C   UNL     1      51.818  54.034  19.608  1.00  0.00    +0.078 A 
ATOM      3  C   UNL     1      51.313  52.989  18.820  1.00  0.00    +0.145 A 
ATOM      4  C   UNL     1      50.071  53.133  18.181  1.00  0.00    +0.087 A 
ATOM      5  C   UNL     1      49.377  54.346  18.297  1.00  0.00    +0.078 A 
ATOM      6  C   UNL     1      49.871  55.376  19.104  1.00  0.00    +0.145 A 
ENDROOT
BRANCH   1   7
ATOM      7  N   UNL     1      51.529  56.307  20.571  1.00  0.00    -0.330 N 
ATOM      8  N   UNL     1      52.465  57.617  22.232  1.00  0.00    -0.363 N 
ATOM      9  C   UNL     1      51.870  56.430  21.891  1.00  0.00    +0.170 C 
ATOM     10  S   UNL     1      51.635  55.348  23.142  1.00  0.00    -0.041 S 
ATOM     11  H   UNL     1      52.739  57.656  23.208  1.00  0.00    +0.162 HD
ATOM     12  H   UNL     1      51.390  57.185  20.086  1.00  0.00    +0.169 HD
BRANCH   8  13
ATOM     13  C   UNL     1      52.975  58.672  21.370  1.00  0.00    +0.112 C 
ATOM     14  C   UNL     1      54.299  58.294  20.730  1.00  0.00    +0.027 C 
ENDBRANCH   8  13
ENDBRANCH   1   7
BRANCH   6  15
ATOM     15  O   UNL     1      49.253  56.592  19.293  1.00  0.00    -0.492 OA
BRANCH  15  16
ATOM     16  C   UNL     1      48.065  56.614  20.082  1.00  0.00    +0.226 C 
ATOM     17  C   UNL     1      48.158  57.795  21.030  1.00  0.00    +0.049 C 
ENDBRANCH  15  16
ENDBRANCH   6  15
BRANCH   3  18
ATOM     18  O   UNL     1      52.107  51.914  18.499  1.00  0.00    -0.492 OA
BRANCH  18  19
ATOM     19  C   UNL     1      52.776  51.335  19.625  1.00  0.00    +0.226 C 
ATOM     20  C   UNL     1      52.716  49.823  19.485  1.00  0.00    +0.049 C 
ENDBRANCH  18  19
ENDBRANCH   3  18
BRANCH   4  21
ATOM     21  N   UNL     1      49.476  52.147  17.363  1.00  0.00    -0.318 N 
ATOM     22  C   UNL     1      49.174  50.843  17.726  1.00  0.00    +0.265 C 
ATOM     23  O   UNL     1      49.232  50.413  18.875  1.00  0.00    -0.268 OA
ATOM     24  H   UNL     1      49.050  52.455  16.500  1.00  0.00    +0.170 HD
BRANCH  22  25
ATOM     25  C   UNL     1      48.659  50.013  16.635  1.00  0.00    +0.092 A 
ATOM     26  C   UNL     1      48.629  50.350  15.292  1.00  0.00    +0.025 A 
ATOM     27  S   UNL     1      48.000  48.449  16.890  1.00  0.00    -0.139 S 
ATOM     28  C   UNL     1      48.065  49.324  14.479  1.00  0.00    +0.012 A 
ATOM     29  C   UNL     1      47.681  48.233  15.224  1.00  0.00    +0.065 A 
ENDBRANCH  22  25
ENDBRANCH   4  21
TORSDOF 8
ENDMDL
MODEL 2
REMARK VINA RESULT:    -7.323      2.497      8.617
REMARK INTER + INTRA:         -11.629
REMARK INTER:                 -10.911
REMARK INTRA:                  -0.718
REMARK UNBOUND:                -0.881
REMARK SMILES CCNC(=S)Nc1cc(OCC)c(NC(=O)c2cccs2)cc1OCC
REMARK SMILES IDX 7 1 8 2 9 3 13 4 22 5 23 6 6 7 3 8 4 9 5 10 2 13 1 14 24 15
REMARK SMILES IDX 25 16 26 17 10 18 11 19 12 20 14 21 15 22 16 23 17 25 18 26
REMARK SMILES IDX 21 27 19 28 20 29
REMARK H PARENT 3 11 6 12 14 24
ROOT
ATOM      1  C   UNL     1      48.241  51.473  16.688  1.00  0.00    +0.087 A 
ATOM      2  C   UNL     1      47.999  52.834  16.506  1.00  0.00    +0.078 A 
ATOM      3  C   UNL     1      48.554  53.788  17.373  1.00  0.00    +0.145 A 
ATOM      4  C   UNL     1      49.389  53.374  18.424  1.00  0.00    +0.087 A 
ATOM      5  C   UNL     1      49.700  52.013  18.558  1.00  0.00    +0.078 A 
ATOM      6  C   UNL     1      49.125  51.063  17.708  1.00  0.00    +0.145 A 
ENDROOT
BRANCH   1   7
ATOM      7  N   UNL     1      47.718  50.451  15.860  1.00  0.00    -0.330 N 
ATOM      8  N   UNL     1      47.496  48.593  14.500  1.00  0.00    -0.363 N 
ATOM      9  C   UNL     1      48.298  49.613  14.945  1.00  0.00    +0.170 C 
ATOM     10  S   UNL     1      49.829  49.678  14.281  1.00  0.00    -0.041 S 
ATOM     11  H   UNL     1      47.971  47.970  13.855  1.00  0.00    +0.162 HD
ATOM     12  H   UNL     1      46.706  50.482  15.825  1.00  0.00    +0.169 HD
BRANCH   8  13
ATOM     13  C   UNL     1      46.207  48.148  15.004  1.00  0.00    +0.112 C 
ATOM     14  C   UNL     1      45.386  47.453  13.933  1.00  0.00    +0.027 C 
ENDBRANCH   8  13
ENDBRANCH   1   7
BRANCH   6  15
ATOM     15  O   UNL     1      49.355  49.707  17.773  1.00  0.00    -0.492 OA
BRANCH  15  16
ATOM     16  C   UNL     1      48.985  49.031  18.974  1.00  0.00    +0.226 C 
ATOM     17  C   UNL     1      47.527  48.628  18.849  1.00  0.00    +0.049 C 
ENDBRANCH  15  16
ENDBRANCH   6  15
BRANCH   3  18
ATOM     18  O   UNL     1      48.459  55.128  17.085  1.00  0.00    -0.492 OA
BRANCH  18  19
ATOM     19  C   UNL     1      47.762  55.407  15.865  1.00  0.00    +0.226 C 
ATOM     20  C   UNL     1      47.782  56.910  15.642  1.00  0.00    +0.049 C 
ENDBRANCH  18  19
ENDBRANCH   3  18
BRANCH   4  21
ATOM     21  N   UNL     1      50.001  54.250  19.347  1.00  0.00    -0.318 N 
ATOM     22  C   UNL     1      51.352  54.558  19.425  1.00  0.00    +0.265 C 
ATOM     23  O   UNL     1      52.184  54.234  18.583  1.00  0.00    -0.268 OA
ATOM     24  H   UNL     1      49.397  54.861  19.879  1.00  0.00    +0.170 HD
BRANCH  22  25
ATOM     25  C   UNL     1      51.714  55.416  20.555  1.00  0.00    +0.092 A 
ATOM     26  C   UNL     1      51.422  55.184  21.888  1.00  0.00    +0.025 A 
ATOM     27  S   UNL     1      52.586  56.882  20.365  1.00  0.00    -0.139 S 
ATOM     28  C   UNL     1      51.913  56.209  22.748  1.00  0.00    +0.012 A 
ATOM     29  C   UNL     1      52.567  57.195  22.046  1.00  0.00    +0.065 A 
ENDBRANCH  22  25
ENDBRANCH   4  21
TORSDOF 8
ENDMDL
MODEL 3
REMARK VINA RESULT:    -6.887      4.293      8.507
REMARK INTER + INTRA:         -10.989
REMARK INTER:                 -10.193
REMARK INTRA:                  -0.797
REMARK UNBOUND:                -0.881
REMARK SMILES CCNC(=S)Nc1cc(OCC)c(NC(=O)c2cccs2)cc1OCC
REMARK SMILES IDX 7 1 8 2 9 3 13 4 22 5 23 6 6 7 3 8 4 9 5 10 2 13 1 14 24 15
REMARK SMILES IDX 25 16 26 17 10 18 11 19 12 20 14 21 15 22 16 23 17 25 18 26
REMARK SMILES IDX 21 27 19 28 20 29
REMARK H PARENT 3 11 6 12 14 24
ROOT
ATOM      1  C   UNL     1      49.089  56.015  19.312  1.00  0.00    +0.087 A 
ATOM      2  C   UNL     1      48.577  56.340  18.056  1.00  0.00    +0.078 A 
ATOM      3  C   UNL     1      47.841  57.518  17.861  1.00  0.00    +0.145 A 
ATOM      4  C   UNL     1      47.636  58.401  18.933  1.00  0.00    +0.087 A 
ATOM      5  C   UNL     1      48.221  58.117  20.176  1.00  0.00    +0.078 A 
ATOM      6  C   UNL     1      48.933  56.930  20.375  1.00  0.00    +0.145 A 
ENDROOT
BRANCH   1   7
ATOM      7  N   UNL     1      49.840  54.848  19.592  1.00  0.00    -0.330 N 
ATOM      8  N   UNL     1      50.963  52.834  19.407  1.00  0.00    -0.363 N 
ATOM      9  C   UNL     1      49.956  53.644  18.950  1.00  0.00    +0.170 C 
ATOM     10  S   UNL     1      49.026  53.020  17.711  1.00  0.00    -0.041 S 
ATOM     11  H   UNL     1      51.043  51.969  18.883  1.00  0.00    +0.162 HD
ATOM     12  H   UNL     1      50.214  54.864  20.533  1.00  0.00    +0.169 HD
BRANCH   8  13
ATOM     13  C   UNL     1      52.049  53.144  20.323  1.00  0.00    +0.112 C 
ATOM     14  C   UNL     1      51.780  52.622  21.723  1.00  0.00    +0.027 C 
ENDBRANCH   8  13
ENDBRANCH   1   7
BRANCH   6  15
ATOM     15  O   UNL     1      49.526  56.557  21.560  1.00  0.00    -0.492 OA
BRANCH  15  16
ATOM     16  C   UNL     1      50.724  57.232  21.941  1.00  0.00    +0.226 C 
ATOM     17  C   UNL     1      51.676  56.200  22.517  1.00  0.00    +0.049 C 
ENDBRANCH  15  16
ENDBRANCH   6  15
BRANCH   3  18
ATOM     18  O   UNL     1      47.495  57.919  16.592  1.00  0.00    -0.492 OA
BRANCH  18  19
ATOM     19  C   UNL     1      47.770  56.939  15.583  1.00  0.00    +0.226 C 
ATOM     20  C   UNL     1      46.731  57.087  14.485  1.00  0.00    +0.049 C 
ENDBRANCH  18  19
ENDBRANCH   3  18
BRANCH   4  21
ATOM     21  N   UNL     1      46.917  59.612  18.843  1.00  0.00    -0.318 N 
ATOM     22  C   UNL     1      47.418  60.845  18.449  1.00  0.00    +0.265 C 
ATOM     23  O   UNL     1      48.532  61.015  17.962  1.00  0.00    -0.268 OA
ATOM     24  H   UNL     1      45.909  59.558  18.876  1.00  0.00    +0.170 HD
BRANCH  22  25
ATOM     25  C   UNL     1      46.463  61.950  18.556  1.00  0.00    +0.092 A 
ATOM     26  C   UNL     1      45.833  62.382  19.710  1.00  0.00    +0.025 A 
ATOM     27  S   UNL     1      45.980  62.893  17.205  1.00  0.00    -0.139 S 
ATOM     28  C   UNL     1      44.958  63.484  19.483  1.00  0.00    +0.012 A 
ATOM     29  C   UNL     1      44.944  63.862  18.160  1.00  0.00    +0.065 A 
ENDBRANCH  22  25
ENDBRANCH   4  21
TORSDOF 8
ENDMDL
MODEL 4
REMARK VINA RESULT:    -6.847      2.142      2.836
REMARK INTER + INTRA:         -10.930
REMARK INTER:                 -10.263
REMARK INTRA:                  -0.667
REMARK UNBOUND:                -0.881
REMARK SMILES CCNC(=S)Nc1cc(OCC)c(NC(=O)c2cccs2)cc1OCC
REMARK SMILES IDX 7 1 8 2 9 3 13 4 22 5 23 6 6 7 3 8 4 9 5 10 2 13 1 14 24 15
REMARK SMILES IDX 25 16 26 17 10 18 11 19 12 20 14 21 15 22 16 23 17 25 18 26
REMARK SMILES IDX 21 27 19 28 20 29
REMARK H PARENT 3 11 6 12 14 24
ROOT
ATOM      1  C   UNL     1      49.973  53.295  18.761  1.00  0.00    +0.087 A 
ATOM      2  C   UNL     1      50.276  51.938  18.856  1.00  0.00    +0.078 A 
ATOM      3  C   UNL     1      49.565  50.987  18.108  1.00  0.00    +0.145 A 
ATOM      4  C   UNL     1      48.554  51.403  17.228  1.00  0.00    +0.087 A 
ATOM      5  C   UNL     1      48.305  52.775  17.070  1.00  0.00    +0.078 A 
ATOM      6  C   UNL     1      48.997  53.718  17.835  1.00  0.00    +0.145 A 
ENDROOT
BRANCH   1   7
ATOM      7  N   UNL     1      50.641  54.316  19.481  1.00  0.00    -0.330 N 
ATOM      8  N   UNL     1      52.006  55.462  20.955  1.00  0.00    -0.363 N 
ATOM      9  C   UNL     1      51.280  54.329  20.692  1.00  0.00    +0.170 C 
ATOM     10  S   UNL     1      51.275  53.172  21.897  1.00  0.00    -0.041 S 
ATOM     11  H   UNL     1      52.497  55.420  21.842  1.00  0.00    +0.162 HD
ATOM     12  H   UNL     1      50.446  55.232  19.095  1.00  0.00    +0.169 HD
BRANCH   8  13
ATOM     13  C   UNL     1      52.366  56.553  20.063  1.00  0.00    +0.112 C 
ATOM     14  C   UNL     1      52.030  57.909  20.657  1.00  0.00    +0.027 C 
ENDBRANCH   8  13
ENDBRANCH   1   7
BRANCH   6  15
ATOM     15  O   UNL     1      48.810  55.081  17.762  1.00  0.00    -0.492 OA
BRANCH  15  16
ATOM     16  C   UNL     1      48.186  55.600  16.588  1.00  0.00    +0.226 C 
ATOM     17  C   UNL     1      47.981  57.090  16.792  1.00  0.00    +0.049 C 
ENDBRANCH  15  16
ENDBRANCH   6  15
BRANCH   3  18
ATOM     18  O   UNL     1      49.984  49.678  18.071  1.00  0.00    -0.492 OA
BRANCH  18  19
ATOM     19  C   UNL     1      49.560  48.905  19.200  1.00  0.00    +0.226 C 
ATOM     20  C   UNL     1      50.709  48.846  20.192  1.00  0.00    +0.049 C 
ENDBRANCH  18  19
ENDBRANCH   3  18
BRANCH   4  21
ATOM     21  N   UNL     1      47.784  50.531  16.427  1.00  0.00    -0.318 N 
ATOM     22  C   UNL     1      46.790  49.668  16.864  1.00  0.00    +0.265 C 
ATOM     23  O   UNL     1      46.326  49.666  18.000  1.00  0.00    -0.268 OA
ATOM     24  H   UNL     1      47.811  50.674  15.428  1.00  0.00    +0.170 HD
BRANCH  22  25
ATOM     25  C   UNL     1      46.237  48.803  15.820  1.00  0.00    +0.092 A 
ATOM     26  C   UNL     1      46.731  48.647  14.536  1.00  0.00    +0.025 A 
ATOM     27  S   UNL     1      44.845  47.828  16.063  1.00  0.00    -0.139 S 
ATOM     28  C   UNL     1      45.966  47.730  13.757  1.00  0.00    +0.012 A 
ATOM     29  C   UNL     1      44.909  47.211  14.469  1.00  0.00    +0.065 A 
ENDBRANCH  22  25
ENDBRANCH   4  21
TORSDOF 8
ENDMDL
MODEL 5
REMARK VINA RESULT:    -6.794      1.878      2.049
REMARK INTER + INTRA:         -10.852
REMARK INTER:                 -10.095
REMARK INTRA:                  -0.756
REMARK UNBOUND:                -0.881
REMARK SMILES CCNC(=S)Nc1cc(OCC)c(NC(=O)c2cccs2)cc1OCC
REMARK SMILES IDX 7 1 8 2 9 3 13 4 22 5 23 6 6 7 3 8 4 9 5 10 2 13 1 14 24 15
REMARK SMILES IDX 25 16 26 17 10 18 11 19 12 20 14 21 15 22 16 23 17 25 18 26
REMARK SMILES IDX 21 27 19 28 20 29
REMARK H PARENT 3 11 6 12 14 24
ROOT
ATOM      1  C   UNL     1      50.584  54.777  19.190  1.00  0.00    +0.087 A 
ATOM      2  C   UNL     1      51.051  53.492  19.462  1.00  0.00    +0.078 A 
ATOM      3  C   UNL     1      50.340  52.361  19.035  1.00  0.00    +0.145 A 
ATOM      4  C   UNL     1      49.155  52.517  18.298  1.00  0.00    +0.087 A 
ATOM      5  C   UNL     1      48.729  53.808  17.952  1.00  0.00    +0.078 A 
ATOM      6  C   UNL     1      49.425  54.934  18.400  1.00  0.00    +0.145 A 
ENDROOT
BRANCH   1   7
ATOM      7  N   UNL     1      51.241  55.968  19.586  1.00  0.00    -0.330 N 
ATOM      8  N   UNL     1      51.953  57.819  20.774  1.00  0.00    -0.363 N 
ATOM      9  C   UNL     1      50.950  56.918  20.527  1.00  0.00    +0.170 C 
ATOM     10  S   UNL     1      49.538  57.144  21.391  1.00  0.00    -0.041 S 
ATOM     11  H   UNL     1      51.716  58.483  21.504  1.00  0.00    +0.162 HD
ATOM     12  H   UNL     1      51.957  56.235  18.920  1.00  0.00    +0.169 HD
BRANCH   8  13
ATOM     13  C   UNL     1      53.342  57.793  20.343  1.00  0.00    +0.112 C 
ATOM     14  C   UNL     1      54.302  57.808  21.518  1.00  0.00    +0.027 C 
ENDBRANCH   8  13
ENDBRANCH   1   7
BRANCH   6  15
ATOM     15  O   UNL     1      49.074  56.237  18.127  1.00  0.00    -0.492 OA
BRANCH  15  16
ATOM     16  C   UNL     1      48.286  56.479  16.962  1.00  0.00    +0.226 C 
ATOM     17  C   UNL     1      47.622  57.834  17.124  1.00  0.00    +0.049 C 
ENDBRANCH  15  16
ENDBRANCH   6  15
BRANCH   3  18
ATOM     18  O   UNL     1      50.893  51.108  19.149  1.00  0.00    -0.492 OA
BRANCH  18  19
ATOM     19  C   UNL     1      50.842  50.574  20.478  1.00  0.00    +0.226 C 
ATOM     20  C   UNL     1      50.543  49.088  20.380  1.00  0.00    +0.049 C 
ENDBRANCH  18  19
ENDBRANCH   3  18
BRANCH   4  21
ATOM     21  N   UNL     1      48.368  51.448  17.817  1.00  0.00    -0.318 N 
ATOM     22  C   UNL     1      48.440  50.869  16.558  1.00  0.00    +0.265 C 
ATOM     23  O   UNL     1      49.323  51.103  15.738  1.00  0.00    -0.268 OA
ATOM     24  H   UNL     1      47.837  50.920  18.495  1.00  0.00    +0.170 HD
BRANCH  22  25
ATOM     25  C   UNL     1      47.423  49.847  16.302  1.00  0.00    +0.092 A 
ATOM     26  C   UNL     1      46.230  49.686  16.986  1.00  0.00    +0.025 A 
ATOM     27  S   UNL     1      47.585  48.665  15.068  1.00  0.00    -0.139 S 
ATOM     28  C   UNL     1      45.455  48.595  16.496  1.00  0.00    +0.012 A 
ATOM     29  C   UNL     1      46.078  47.953  15.451  1.00  0.00    +0.065 A 
ENDBRANCH  22  25
ENDBRANCH   4  21
TORSDOF 8
ENDMDL
