MODEL 1
REMARK VINA RESULT:   -10.050      0.000      0.000
REMARK INTER + INTRA:         -16.530
REMARK INTER:                 -15.338
REMARK INTRA:                  -1.192
REMARK UNBOUND:                -1.192
REMARK SMILES C[C@H](NC(=O)C1CCC(CNS(=O)(=O)c2ccccc2)CC1)C(=O)N[C@H](C)c1ccccc1
REMARK SMILES IDX 6 1 7 2 8 3 9 4 21 5 22 6 4 7 3 8 5 9 2 11 1 12 23 13 25 14
REMARK SMILES IDX 24 15 26 17 27 18 28 19 29 20 33 21 30 22 32 23 31 24 10 25
REMARK SMILES IDX 11 26 12 28 13 29 14 30 15 31 16 32 20 33 17 34 19 35 18 36
REMARK H PARENT 3 10 25 16 11 27
ROOT
ATOM      1  C   UNL     1      50.120  54.918  21.012  1.00  0.00    +0.078 C 
ATOM      2  C   UNL     1      49.300  55.231  19.759  1.00  0.00    +0.014 C 
ATOM      3  C   UNL     1      48.242  56.305  20.015  1.00  0.00    +0.006 C 
ATOM      4  C   UNL     1      48.691  57.385  21.018  1.00  0.00    +0.004 C 
ATOM      5  C   UNL     1      50.219  57.488  21.083  1.00  0.00    +0.006 C 
ATOM      6  C   UNL     1      50.850  56.168  21.534  1.00  0.00    +0.014 C 
ENDROOT
BRANCH   1   7
ATOM      7  C   UNL     1      51.109  53.783  20.755  1.00  0.00    +0.223 C 
ATOM      8  N   UNL     1      50.508  52.600  20.375  1.00  0.00    -0.344 N 
ATOM      9  O   UNL     1      52.325  53.905  20.869  1.00  0.00    -0.275 OA
ATOM     10  H   UNL     1      49.604  52.692  19.926  1.00  0.00    +0.164 HD
BRANCH   8  11
ATOM     11  C   UNL     1      51.330  51.499  19.887  1.00  0.00    +0.168 C 
ATOM     12  C   UNL     1      51.263  50.312  20.838  1.00  0.00    +0.041 C 
BRANCH  11  13
ATOM     13  C   UNL     1      50.800  51.075  18.503  1.00  0.00    +0.242 C 
ATOM     14  N   UNL     1      49.425  51.088  18.397  1.00  0.00    -0.348 N 
ATOM     15  O   UNL     1      51.552  50.815  17.565  1.00  0.00    -0.273 OA
ATOM     16  H   UNL     1      48.891  51.044  19.256  1.00  0.00    +0.164 HD
BRANCH  14  17
ATOM     17  C   UNL     1      48.752  50.650  17.184  1.00  0.00    +0.109 C 
ATOM     18  C   UNL     1      48.321  51.839  16.318  1.00  0.00    +0.036 C 
BRANCH  17  19
ATOM     19  C   UNL     1      47.572  49.764  17.548  1.00  0.00    -0.026 A 
ATOM     20  C   UNL     1      46.359  49.825  16.842  1.00  0.00    +0.006 A 
ATOM     21  C   UNL     1      47.673  48.879  18.633  1.00  0.00    +0.006 A 
ATOM     22  C   UNL     1      45.284  49.012  17.203  1.00  0.00    +0.000 A 
ATOM     23  C   UNL     1      46.595  48.067  18.991  1.00  0.00    +0.000 A 
ATOM     24  C   UNL     1      45.403  48.132  18.274  1.00  0.00    +0.000 A 
ENDBRANCH  17  19
ENDBRANCH  14  17
ENDBRANCH  11  13
ENDBRANCH   8  11
ENDBRANCH   1   7
BRANCH   4  25
ATOM     25  C   UNL     1      48.016  58.742  20.761  1.00  0.00    +0.102 C 
BRANCH  25  26
ATOM     26  N   UNL     1      47.067  58.658  19.651  1.00  0.00    -0.211 NA
ATOM     27  H   UNL     1      46.122  58.319  19.820  1.00  0.00    +0.141 HD
BRANCH  26  28
ATOM     28  S   UNL     1      47.177  59.735  18.371  1.00  0.00    +0.240 S 
ATOM     29  O   UNL     1      46.617  59.062  17.223  1.00  0.00    -0.207 OA
ATOM     30  O   UNL     1      48.516  60.284  18.360  1.00  0.00    -0.207 OA
BRANCH  28  31
ATOM     31  C   UNL     1      46.048  61.017  18.853  1.00  0.00    +0.082 A 
ATOM     32  C   UNL     1      44.694  60.888  18.537  1.00  0.00    +0.022 A 
ATOM     33  C   UNL     1      46.524  62.151  19.517  1.00  0.00    +0.022 A 
ATOM     34  C   UNL     1      43.804  61.895  18.910  1.00  0.00    +0.001 A 
ATOM     35  C   UNL     1      45.628  63.154  19.886  1.00  0.00    +0.001 A 
ATOM     36  C   UNL     1      44.271  63.024  19.586  1.00  0.00    +0.000 A 
ENDBRANCH  28  31
ENDBRANCH  26  28
ENDBRANCH  25  26
ENDBRANCH   4  25
TORSDOF 9
ENDMDL
MODEL 2
REMARK VINA RESULT:    -9.956      1.808      2.487
REMARK INTER + INTRA:         -16.386
REMARK INTER:                 -14.915
REMARK INTRA:                  -1.471
REMARK UNBOUND:                -1.192
REMARK SMILES C[C@H](NC(=O)C1CCC(CNS(=O)(=O)c2ccccc2)CC1)C(=O)N[C@H](C)c1ccccc1
REMARK SMILES IDX 6 1 7 2 8 3 9 4 21 5 22 6 4 7 3 8 5 9 2 11 1 12 23 13 25 14
REMARK SMILES IDX 24 15 26 17 27 18 28 19 29 20 33 21 30 22 32 23 31 24 10 25
REMARK SMILES IDX 11 26 12 28 13 29 14 30 15 31 16 32 20 33 17 34 19 35 18 36
REMARK H PARENT 3 10 25 16 11 27
ROOT
ATOM      1  C   UNL     1      50.030  54.888  20.997  1.00  0.00    +0.078 C 
ATOM      2  C   UNL     1      49.207  55.162  19.738  1.00  0.00    +0.014 C 
ATOM      3  C   UNL     1      48.124  56.217  19.974  1.00  0.00    +0.006 C 
ATOM      4  C   UNL     1      48.548  57.323  20.960  1.00  0.00    +0.004 C 
ATOM      5  C   UNL     1      50.073  57.460  21.026  1.00  0.00    +0.006 C 
ATOM      6  C   UNL     1      50.731  56.162  21.500  1.00  0.00    +0.014 C 
ENDROOT
BRANCH   1   7
ATOM      7  C   UNL     1      51.045  53.771  20.760  1.00  0.00    +0.223 C 
ATOM      8  N   UNL     1      50.497  52.636  20.198  1.00  0.00    -0.344 N 
ATOM      9  O   UNL     1      52.236  53.868  21.037  1.00  0.00    -0.275 OA
ATOM     10  H   UNL     1      49.657  52.780  19.649  1.00  0.00    +0.164 HD
BRANCH   8  11
ATOM     11  C   UNL     1      51.374  51.576  19.715  1.00  0.00    +0.168 C 
ATOM     12  C   UNL     1      51.404  50.411  20.695  1.00  0.00    +0.041 C 
BRANCH  11  13
ATOM     13  C   UNL     1      50.839  51.085  18.355  1.00  0.00    +0.242 C 
ATOM     14  N   UNL     1      49.463  51.063  18.265  1.00  0.00    -0.348 N 
ATOM     15  O   UNL     1      51.586  50.805  17.419  1.00  0.00    -0.273 OA
ATOM     16  H   UNL     1      48.939  51.042  19.131  1.00  0.00    +0.164 HD
BRANCH  14  17
ATOM     17  C   UNL     1      48.787  50.562  17.078  1.00  0.00    +0.109 C 
ATOM     18  C   UNL     1      48.367  51.703  16.145  1.00  0.00    +0.036 C 
BRANCH  17  19
ATOM     19  C   UNL     1      47.599  49.709  17.491  1.00  0.00    -0.026 A 
ATOM     20  C   UNL     1      46.383  49.750  16.789  1.00  0.00    +0.006 A 
ATOM     21  C   UNL     1      47.695  48.878  18.618  1.00  0.00    +0.006 A 
ATOM     22  C   UNL     1      45.300  48.968  17.194  1.00  0.00    +0.000 A 
ATOM     23  C   UNL     1      46.611  48.096  19.020  1.00  0.00    +0.000 A 
ATOM     24  C   UNL     1      45.415  48.140  18.307  1.00  0.00    +0.000 A 
ENDBRANCH  17  19
ENDBRANCH  14  17
ENDBRANCH  11  13
ENDBRANCH   8  11
ENDBRANCH   1   7
BRANCH   4  25
ATOM     25  C   UNL     1      47.844  58.661  20.679  1.00  0.00    +0.102 C 
BRANCH  25  26
ATOM     26  N   UNL     1      48.211  59.185  19.364  1.00  0.00    -0.211 NA
ATOM     27  H   UNL     1      48.853  58.661  18.773  1.00  0.00    +0.141 HD
BRANCH  26  28
ATOM     28  S   UNL     1      47.124  60.129  18.505  1.00  0.00    +0.240 S 
ATOM     29  O   UNL     1      47.873  61.256  18.001  1.00  0.00    -0.207 OA
ATOM     30  O   UNL     1      45.938  60.299  19.317  1.00  0.00    -0.207 OA
BRANCH  28  31
ATOM     31  C   UNL     1      46.717  59.087  17.128  1.00  0.00    +0.082 A 
ATOM     32  C   UNL     1      47.502  57.960  16.870  1.00  0.00    +0.022 A 
ATOM     33  C   UNL     1      45.639  59.413  16.302  1.00  0.00    +0.022 A 
ATOM     34  C   UNL     1      47.188  57.140  15.787  1.00  0.00    +0.001 A 
ATOM     35  C   UNL     1      45.333  58.589  15.219  1.00  0.00    +0.001 A 
ATOM     36  C   UNL     1      46.103  57.454  14.965  1.00  0.00    +0.000 A 
ENDBRANCH  28  31
ENDBRANCH  26  28
ENDBRANCH  25  26
ENDBRANCH   4  25
TORSDOF 9
ENDMDL
MODEL 3
REMARK VINA RESULT:    -9.835      3.619      5.300
REMARK INTER + INTRA:         -16.202
REMARK INTER:                 -15.219
REMARK INTRA:                  -0.983
REMARK UNBOUND:                -1.192
REMARK SMILES C[C@H](NC(=O)C1CCC(CNS(=O)(=O)c2ccccc2)CC1)C(=O)N[C@H](C)c1ccccc1
REMARK SMILES IDX 6 1 7 2 8 3 9 4 21 5 22 6 4 7 3 8 5 9 2 11 1 12 23 13 25 14
REMARK SMILES IDX 24 15 26 17 27 18 28 19 29 20 33 21 30 22 32 23 31 24 10 25
REMARK SMILES IDX 11 26 12 28 13 29 14 30 15 31 16 32 20 33 17 34 19 35 18 36
REMARK H PARENT 3 10 25 16 11 27
ROOT
ATOM      1  C   UNL     1      49.464  51.811  18.231  1.00  0.00    +0.078 C 
ATOM      2  C   UNL     1      49.399  53.322  18.456  1.00  0.00    +0.014 C 
ATOM      3  C   UNL     1      49.593  53.696  19.926  1.00  0.00    +0.006 C 
ATOM      4  C   UNL     1      50.581  52.777  20.671  1.00  0.00    +0.004 C 
ATOM      5  C   UNL     1      51.556  52.102  19.700  1.00  0.00    +0.006 C 
ATOM      6  C   UNL     1      50.818  51.232  18.679  1.00  0.00    +0.014 C 
ENDROOT
BRANCH   1   7
ATOM      7  C   UNL     1      49.182  51.458  16.772  1.00  0.00    +0.223 C 
ATOM      8  N   UNL     1      50.147  50.653  16.201  1.00  0.00    -0.344 N 
ATOM      9  O   UNL     1      48.192  51.845  16.160  1.00  0.00    -0.275 OA
ATOM     10  H   UNL     1      50.671  50.072  16.845  1.00  0.00    +0.164 HD
BRANCH   8  11
ATOM     11  C   UNL     1      49.906  50.058  14.892  1.00  0.00    +0.168 C 
ATOM     12  C   UNL     1      51.220  49.673  14.224  1.00  0.00    +0.041 C 
BRANCH  11  13
ATOM     13  C   UNL     1      49.042  48.796  15.085  1.00  0.00    +0.242 C 
ATOM     14  N   UNL     1      47.701  48.984  14.827  1.00  0.00    -0.348 N 
ATOM     15  O   UNL     1      49.532  47.706  15.378  1.00  0.00    -0.273 OA
ATOM     16  H   UNL     1      47.349  49.932  14.861  1.00  0.00    +0.164 HD
BRANCH  14  17
ATOM     17  C   UNL     1      46.732  47.918  15.026  1.00  0.00    +0.109 C 
ATOM     18  C   UNL     1      45.497  48.106  14.138  1.00  0.00    +0.036 C 
BRANCH  17  19
ATOM     19  C   UNL     1      46.358  47.838  16.497  1.00  0.00    -0.026 A 
ATOM     20  C   UNL     1      45.214  47.147  16.930  1.00  0.00    +0.006 A 
ATOM     21  C   UNL     1      47.151  48.489  17.455  1.00  0.00    +0.006 A 
ATOM     22  C   UNL     1      44.882  47.098  18.285  1.00  0.00    +0.000 A 
ATOM     23  C   UNL     1      46.817  48.437  18.809  1.00  0.00    +0.000 A 
ATOM     24  C   UNL     1      45.685  47.740  19.223  1.00  0.00    +0.000 A 
ENDBRANCH  17  19
ENDBRANCH  14  17
ENDBRANCH  11  13
ENDBRANCH   8  11
ENDBRANCH   1   7
BRANCH   4  25
ATOM     25  C   UNL     1      51.295  53.496  21.826  1.00  0.00    +0.102 C 
BRANCH  25  26
ATOM     26  N   UNL     1      52.049  54.652  21.343  1.00  0.00    -0.211 NA
ATOM     27  H   UNL     1      52.238  54.751  20.348  1.00  0.00    +0.141 HD
BRANCH  26  28
ATOM     28  S   UNL     1      51.955  56.114  22.158  1.00  0.00    +0.240 S 
ATOM     29  O   UNL     1      53.117  56.874  21.766  1.00  0.00    -0.207 OA
ATOM     30  O   UNL     1      51.656  55.835  23.546  1.00  0.00    -0.207 OA
BRANCH  28  31
ATOM     31  C   UNL     1      50.533  56.873  21.418  1.00  0.00    +0.082 A 
ATOM     32  C   UNL     1      50.309  56.715  20.049  1.00  0.00    +0.022 A 
ATOM     33  C   UNL     1      49.667  57.642  22.201  1.00  0.00    +0.022 A 
ATOM     34  C   UNL     1      49.195  57.313  19.462  1.00  0.00    +0.001 A 
ATOM     35  C   UNL     1      48.555  58.239  21.607  1.00  0.00    +0.001 A 
ATOM     36  C   UNL     1      48.318  58.071  20.241  1.00  0.00    +0.000 A 
ENDBRANCH  28  31
ENDBRANCH  26  28
ENDBRANCH  25  26
ENDBRANCH   4  25
TORSDOF 9
ENDMDL
MODEL 4
REMARK VINA RESULT:    -9.798      3.729      6.382
REMARK INTER + INTRA:         -16.146
REMARK INTER:                 -14.931
REMARK INTRA:                  -1.214
REMARK UNBOUND:                -1.192
REMARK SMILES C[C@H](NC(=O)C1CCC(CNS(=O)(=O)c2ccccc2)CC1)C(=O)N[C@H](C)c1ccccc1
REMARK SMILES IDX 6 1 7 2 8 3 9 4 21 5 22 6 4 7 3 8 5 9 2 11 1 12 23 13 25 14
REMARK SMILES IDX 24 15 26 17 27 18 28 19 29 20 33 21 30 22 32 23 31 24 10 25
REMARK SMILES IDX 11 26 12 28 13 29 14 30 15 31 16 32 20 33 17 34 19 35 18 36
REMARK H PARENT 3 10 25 16 11 27
ROOT
ATOM      1  C   UNL     1      49.660  50.373  18.422  1.00  0.00    +0.078 C 
ATOM      2  C   UNL     1      50.416  51.641  18.025  1.00  0.00    +0.014 C 
ATOM      3  C   UNL     1      50.651  52.571  19.217  1.00  0.00    +0.006 C 
ATOM      4  C   UNL     1      50.900  51.823  20.541  1.00  0.00    +0.004 C 
ATOM      5  C   UNL     1      51.427  50.405  20.292  1.00  0.00    +0.006 C 
ATOM      6  C   UNL     1      50.427  49.570  19.488  1.00  0.00    +0.014 C 
ENDROOT
BRANCH   1   7
ATOM      7  C   UNL     1      49.362  49.503  17.202  1.00  0.00    +0.223 C 
ATOM      8  N   UNL     1      49.027  48.202  17.518  1.00  0.00    -0.344 N 
ATOM      9  O   UNL     1      49.410  49.916  16.048  1.00  0.00    -0.275 OA
ATOM     10  H   UNL     1      48.625  48.064  18.438  1.00  0.00    +0.164 HD
BRANCH   8  11
ATOM     11  C   UNL     1      48.507  47.320  16.480  1.00  0.00    +0.168 C 
ATOM     12  C   UNL     1      48.920  45.877  16.741  1.00  0.00    +0.041 C 
BRANCH  11  13
ATOM     13  C   UNL     1      46.969  47.419  16.485  1.00  0.00    +0.242 C 
ATOM     14  N   UNL     1      46.379  47.121  15.275  1.00  0.00    -0.348 N 
ATOM     15  O   UNL     1      46.333  47.677  17.506  1.00  0.00    -0.273 OA
ATOM     16  H   UNL     1      46.956  47.188  14.447  1.00  0.00    +0.164 HD
BRANCH  14  17
ATOM     17  C   UNL     1      44.941  47.231  15.082  1.00  0.00    +0.109 C 
ATOM     18  C   UNL     1      44.244  45.878  15.257  1.00  0.00    +0.036 C 
BRANCH  17  19
ATOM     19  C   UNL     1      44.656  47.839  13.719  1.00  0.00    -0.026 A 
ATOM     20  C   UNL     1      45.691  48.285  12.880  1.00  0.00    +0.006 A 
ATOM     21  C   UNL     1      43.330  47.990  13.285  1.00  0.00    +0.006 A 
ATOM     22  C   UNL     1      45.406  48.852  11.637  1.00  0.00    +0.000 A 
ATOM     23  C   UNL     1      43.048  48.557  12.041  1.00  0.00    +0.000 A 
ATOM     24  C   UNL     1      44.086  48.985  11.217  1.00  0.00    +0.000 A 
ENDBRANCH  17  19
ENDBRANCH  14  17
ENDBRANCH  11  13
ENDBRANCH   8  11
ENDBRANCH   1   7
BRANCH   4  25
ATOM     25  C   UNL     1      51.785  52.623  21.510  1.00  0.00    +0.102 C 
BRANCH  25  26
ATOM     26  N   UNL     1      51.088  53.810  22.004  1.00  0.00    -0.211 NA
ATOM     27  H   UNL     1      50.582  53.767  22.887  1.00  0.00    +0.141 HD
BRANCH  26  28
ATOM     28  S   UNL     1      51.671  55.338  21.637  1.00  0.00    +0.240 S 
ATOM     29  O   UNL     1      52.420  55.204  20.410  1.00  0.00    -0.207 OA
ATOM     30  O   UNL     1      52.259  55.894  22.837  1.00  0.00    -0.207 OA
BRANCH  28  31
ATOM     31  C   UNL     1      50.185  56.236  21.272  1.00  0.00    +0.082 A 
ATOM     32  C   UNL     1      49.285  55.715  20.339  1.00  0.00    +0.022 A 
ATOM     33  C   UNL     1      49.941  57.462  21.895  1.00  0.00    +0.022 A 
ATOM     34  C   UNL     1      48.118  56.420  20.046  1.00  0.00    +0.001 A 
ATOM     35  C   UNL     1      48.772  58.162  21.596  1.00  0.00    +0.001 A 
ATOM     36  C   UNL     1      47.861  57.640  20.676  1.00  0.00    +0.000 A 
ENDBRANCH  28  31
ENDBRANCH  26  28
ENDBRANCH  25  26
ENDBRANCH   4  25
TORSDOF 9
ENDMDL
MODEL 5
REMARK VINA RESULT:    -9.281      1.795      2.384
REMARK INTER + INTRA:         -15.355
REMARK INTER:                 -14.400
REMARK INTRA:                  -0.955
REMARK UNBOUND:                -1.192
REMARK SMILES C[C@H](NC(=O)C1CCC(CNS(=O)(=O)c2ccccc2)CC1)C(=O)N[C@H](C)c1ccccc1
REMARK SMILES IDX 6 1 7 2 8 3 9 4 21 5 22 6 4 7 3 8 5 9 2 11 1 12 23 13 25 14
REMARK SMILES IDX 24 15 26 17 27 18 28 19 29 20 33 21 30 22 32 23 31 24 10 25
REMARK SMILES IDX 11 26 12 28 13 29 14 30 15 31 16 32 20 33 17 34 19 35 18 36
REMARK H PARENT 3 10 25 16 11 27
ROOT
ATOM      1  C   UNL     1      48.968  56.158  20.266  1.00  0.00    +0.078 C 
ATOM      2  C   UNL     1      49.054  56.805  18.883  1.00  0.00    +0.014 C 
ATOM      3  C   UNL     1      47.904  57.783  18.630  1.00  0.00    +0.006 C 
ATOM      4  C   UNL     1      47.459  58.549  19.891  1.00  0.00    +0.004 C 
ATOM      5  C   UNL     1      48.583  58.614  20.932  1.00  0.00    +0.006 C 
ATOM      6  C   UNL     1      49.007  57.214  21.385  1.00  0.00    +0.014 C 
ENDROOT
BRANCH   1   7
ATOM      7  C   UNL     1      50.075  55.124  20.461  1.00  0.00    +0.223 C 
ATOM      8  N   UNL     1      49.784  53.892  19.909  1.00  0.00    -0.344 N 
ATOM      9  O   UNL     1      51.126  55.359  21.047  1.00  0.00    -0.275 OA
ATOM     10  H   UNL     1      49.132  53.902  19.134  1.00  0.00    +0.164 HD
BRANCH   8  11
ATOM     11  C   UNL     1      50.828  52.878  19.824  1.00  0.00    +0.168 C 
ATOM     12  C   UNL     1      50.839  52.009  21.075  1.00  0.00    +0.041 C 
BRANCH  11  13
ATOM     13  C   UNL     1      50.547  51.995  18.592  1.00  0.00    +0.242 C 
ATOM     14  N   UNL     1      49.229  51.993  18.187  1.00  0.00    -0.348 N 
ATOM     15  O   UNL     1      51.443  51.403  17.992  1.00  0.00    -0.273 OA
ATOM     16  H   UNL     1      48.532  52.270  18.868  1.00  0.00    +0.164 HD
BRANCH  14  17
ATOM     17  C   UNL     1      48.773  51.161  17.084  1.00  0.00    +0.109 C 
ATOM     18  C   UNL     1      48.191  52.006  15.945  1.00  0.00    +0.036 C 
BRANCH  17  19
ATOM     19  C   UNL     1      47.769  50.142  17.597  1.00  0.00    -0.026 A 
ATOM     20  C   UNL     1      48.123  49.177  18.555  1.00  0.00    +0.006 A 
ATOM     21  C   UNL     1      46.461  50.134  17.089  1.00  0.00    +0.006 A 
ATOM     22  C   UNL     1      47.189  48.242  19.002  1.00  0.00    +0.000 A 
ATOM     23  C   UNL     1      45.528  49.198  17.539  1.00  0.00    +0.000 A 
ATOM     24  C   UNL     1      45.892  48.254  18.497  1.00  0.00    +0.000 A 
ENDBRANCH  17  19
ENDBRANCH  14  17
ENDBRANCH  11  13
ENDBRANCH   8  11
ENDBRANCH   1   7
BRANCH   4  25
ATOM     25  C   UNL     1      46.875  59.932  19.562  1.00  0.00    +0.102 C 
BRANCH  25  26
ATOM     26  N   UNL     1      46.586  60.057  18.134  1.00  0.00    -0.211 NA
ATOM     27  H   UNL     1      46.905  59.337  17.490  1.00  0.00    +0.141 HD
BRANCH  26  28
ATOM     28  S   UNL     1      45.197  60.847  17.627  1.00  0.00    +0.240 S 
ATOM     29  O   UNL     1      44.319  60.902  18.772  1.00  0.00    -0.207 OA
ATOM     30  O   UNL     1      44.781  60.261  16.371  1.00  0.00    -0.207 OA
BRANCH  28  31
ATOM     31  C   UNL     1      45.785  62.491  17.313  1.00  0.00    +0.082 A 
ATOM     32  C   UNL     1      47.125  62.795  17.560  1.00  0.00    +0.022 A 
ATOM     33  C   UNL     1      44.902  63.470  16.850  1.00  0.00    +0.022 A 
ATOM     34  C   UNL     1      47.591  64.087  17.319  1.00  0.00    +0.001 A 
ATOM     35  C   UNL     1      45.375  64.761  16.612  1.00  0.00    +0.001 A 
ATOM     36  C   UNL     1      46.717  65.067  16.843  1.00  0.00    +0.000 A 
ENDBRANCH  28  31
ENDBRANCH  26  28
ENDBRANCH  25  26
ENDBRANCH   4  25
TORSDOF 9
ENDMDL
