MODEL 1
REMARK VINA RESULT:    -8.854      0.000      0.000
REMARK INTER + INTRA:         -13.683
REMARK INTER:                 -12.477
REMARK INTRA:                  -1.206
REMARK UNBOUND:                -1.206
REMARK SMILES C[C@H](Sc1nc(N)nc(N)n1)C(=O)Nc1ccccc1Sc1ccccc1
REMARK SMILES IDX 1 1 2 2 12 3 13 4 14 5 15 7 16 8 20 9 17 10 19 11 18 12
REMARK SMILES IDX 21 13 22 14 23 15 27 16 24 17 26 18 25 19 3 20 4 21 11 22
REMARK SMILES IDX 5 23 9 24 6 25 8 26 10 27 7 30
REMARK H PARENT 14 6 10 28 10 29 7 31 7 32
ROOT
ATOM      1  C   UNL     1      52.422  51.189  21.007  1.00  0.00    +0.030 C 
ATOM      2  C   UNL     1      52.224  52.690  20.808  1.00  0.00    +0.141 C 
ENDROOT
BRANCH   2   3
ATOM      3  C   UNL     1      51.607  53.024  19.441  1.00  0.00    +0.237 C 
ATOM      4  O   UNL     1      52.244  53.628  18.582  1.00  0.00    -0.273 OA
ATOM      5  N   UNL     1      50.280  52.641  19.343  1.00  0.00    -0.324 N 
ATOM      6  H   UNL     1      49.916  52.068  20.101  1.00  0.00    +0.170 HD
BRANCH   5   7
ATOM      7  C   UNL     1      49.402  52.774  18.243  1.00  0.00    +0.055 A 
ATOM      8  C   UNL     1      48.814  53.989  17.877  1.00  0.00    +0.027 A 
ATOM      9  C   UNL     1      49.105  51.619  17.487  1.00  0.00    +0.036 A 
ATOM     10  C   UNL     1      47.954  54.062  16.776  1.00  0.00    +0.002 A 
ATOM     11  C   UNL     1      48.247  51.704  16.380  1.00  0.00    +0.017 A 
ATOM     12  C   UNL     1      47.671  52.924  16.029  1.00  0.00    +0.001 A 
BRANCH   9  13
ATOM     13  S   UNL     1      49.830  50.024  17.895  1.00  0.00    -0.088 SA
BRANCH  13  14
ATOM     14  C   UNL     1      48.428  48.935  17.694  1.00  0.00    +0.012 A 
ATOM     15  C   UNL     1      48.434  48.011  16.644  1.00  0.00    +0.015 A 
ATOM     16  C   UNL     1      47.342  48.963  18.576  1.00  0.00    +0.015 A 
ATOM     17  C   UNL     1      47.357  47.137  16.468  1.00  0.00    +0.001 A 
ATOM     18  C   UNL     1      46.267  48.090  18.398  1.00  0.00    +0.001 A 
ATOM     19  C   UNL     1      46.275  47.178  17.344  1.00  0.00    +0.000 A 
ENDBRANCH  13  14
ENDBRANCH   9  13
ENDBRANCH   5   7
ENDBRANCH   2   3
BRANCH   2  20
ATOM     20  S   UNL     1      51.272  53.421  22.194  1.00  0.00    -0.073 SA
BRANCH  20  21
ATOM     21  C   UNL     1      51.352  55.134  21.735  1.00  0.00    +0.195 A 
ATOM     22  N   UNL     1      50.354  55.615  21.006  1.00  0.00    -0.187 NA
ATOM     23  N   UNL     1      52.387  55.826  22.193  1.00  0.00    -0.187 NA
ATOM     24  C   UNL     1      50.469  56.897  20.713  1.00  0.00    +0.225 A 
ATOM     25  C   UNL     1      52.398  57.094  21.828  1.00  0.00    +0.225 A 
ATOM     26  N   UNL     1      51.452  57.686  21.116  1.00  0.00    -0.177 NA
BRANCH  24  27
ATOM     27  N   UNL     1      49.461  57.468  19.962  1.00  0.00    -0.368 N 
ATOM     28  H   UNL     1      49.793  57.715  19.041  1.00  0.00    +0.159 HD
ATOM     29  H   UNL     1      48.969  58.173  20.492  1.00  0.00    +0.159 HD
ENDBRANCH  24  27
BRANCH  25  30
ATOM     30  N   UNL     1      53.453  57.868  22.258  1.00  0.00    -0.368 N 
ATOM     31  H   UNL     1      53.138  58.717  22.701  1.00  0.00    +0.159 HD
ATOM     32  H   UNL     1      54.154  57.312  22.727  1.00  0.00    +0.159 HD
ENDBRANCH  25  30
ENDBRANCH  20  21
ENDBRANCH   2  20
TORSDOF 8
ENDMDL
MODEL 2
REMARK VINA RESULT:    -8.359      2.414      4.089
REMARK INTER + INTRA:         -12.985
REMARK INTER:                 -11.847
REMARK INTRA:                  -1.139
REMARK UNBOUND:                -1.206
REMARK SMILES C[C@H](Sc1nc(N)nc(N)n1)C(=O)Nc1ccccc1Sc1ccccc1
REMARK SMILES IDX 1 1 2 2 12 3 13 4 14 5 15 7 16 8 20 9 17 10 19 11 18 12
REMARK SMILES IDX 21 13 22 14 23 15 27 16 24 17 26 18 25 19 3 20 4 21 11 22
REMARK SMILES IDX 5 23 9 24 6 25 8 26 10 27 7 30
REMARK H PARENT 14 6 10 28 10 29 7 31 7 32
ROOT
ATOM      1  C   UNL     1      50.613  56.855  21.972  1.00  0.00    +0.030 C 
ATOM      2  C   UNL     1      50.593  55.744  20.927  1.00  0.00    +0.141 C 
ENDROOT
BRANCH   2   3
ATOM      3  C   UNL     1      49.399  55.861  19.967  1.00  0.00    +0.237 C 
ATOM      4  O   UNL     1      48.345  56.383  20.318  1.00  0.00    -0.273 OA
ATOM      5  N   UNL     1      49.634  55.260  18.741  1.00  0.00    -0.324 N 
ATOM      6  H   UNL     1      50.587  54.951  18.563  1.00  0.00    +0.170 HD
BRANCH   5   7
ATOM      7  C   UNL     1      48.779  55.182  17.618  1.00  0.00    +0.055 A 
ATOM      8  C   UNL     1      48.325  56.307  16.924  1.00  0.00    +0.027 A 
ATOM      9  C   UNL     1      48.364  53.902  17.187  1.00  0.00    +0.036 A 
ATOM     10  C   UNL     1      47.481  56.169  15.817  1.00  0.00    +0.002 A 
ATOM     11  C   UNL     1      47.523  53.775  16.071  1.00  0.00    +0.017 A 
ATOM     12  C   UNL     1      47.081  54.907  15.391  1.00  0.00    +0.001 A 
BRANCH   9  13
ATOM     13  S   UNL     1      48.914  52.410  18.028  1.00  0.00    -0.088 SA
BRANCH  13  14
ATOM     14  C   UNL     1      48.309  51.140  16.928  1.00  0.00    +0.012 A 
ATOM     15  C   UNL     1      49.028  50.852  15.763  1.00  0.00    +0.015 A 
ATOM     16  C   UNL     1      47.152  50.406  17.217  1.00  0.00    +0.015 A 
ATOM     17  C   UNL     1      48.587  49.855  14.889  1.00  0.00    +0.001 A 
ATOM     18  C   UNL     1      46.712  49.410  16.342  1.00  0.00    +0.001 A 
ATOM     19  C   UNL     1      47.429  49.137  15.179  1.00  0.00    +0.000 A 
ENDBRANCH  13  14
ENDBRANCH   9  13
ENDBRANCH   5   7
ENDBRANCH   2   3
BRANCH   2  20
ATOM     20  S   UNL     1      52.191  55.647  20.033  1.00  0.00    -0.073 SA
BRANCH  20  21
ATOM     21  C   UNL     1      52.304  53.889  19.820  1.00  0.00    +0.195 A 
ATOM     22  N   UNL     1      52.111  53.132  20.892  1.00  0.00    -0.187 NA
ATOM     23  N   UNL     1      52.529  53.451  18.588  1.00  0.00    -0.187 NA
ATOM     24  C   UNL     1      52.195  51.835  20.660  1.00  0.00    +0.225 A 
ATOM     25  C   UNL     1      52.599  52.138  18.482  1.00  0.00    +0.225 A 
ATOM     26  N   UNL     1      52.411  51.285  19.476  1.00  0.00    -0.177 NA
BRANCH  24  27
ATOM     27  N   UNL     1      51.998  50.987  21.730  1.00  0.00    -0.368 N 
ATOM     28  H   UNL     1      51.030  50.705  21.795  1.00  0.00    +0.159 HD
ATOM     29  H   UNL     1      52.441  51.345  22.564  1.00  0.00    +0.159 HD
ENDBRANCH  24  27
BRANCH  25  30
ATOM     30  N   UNL     1      52.845  51.616  17.230  1.00  0.00    -0.368 N 
ATOM     31  H   UNL     1      52.079  51.786  16.597  1.00  0.00    +0.159 HD
ATOM     32  H   UNL     1      53.783  51.826  16.918  1.00  0.00    +0.159 HD
ENDBRANCH  25  30
ENDBRANCH  20  21
ENDBRANCH   2  20
TORSDOF 8
ENDMDL
MODEL 3
REMARK VINA RESULT:    -8.240      4.418      8.222
REMARK INTER + INTRA:         -12.819
REMARK INTER:                 -11.950
REMARK INTRA:                  -0.868
REMARK UNBOUND:                -1.206
REMARK SMILES C[C@H](Sc1nc(N)nc(N)n1)C(=O)Nc1ccccc1Sc1ccccc1
REMARK SMILES IDX 1 1 2 2 12 3 13 4 14 5 15 7 16 8 20 9 17 10 19 11 18 12
REMARK SMILES IDX 21 13 22 14 23 15 27 16 24 17 26 18 25 19 3 20 4 21 11 22
REMARK SMILES IDX 5 23 9 24 6 25 8 26 10 27 7 30
REMARK H PARENT 14 6 10 28 10 29 7 31 7 32
ROOT
ATOM      1  C   UNL     1      50.179  56.807  21.593  1.00  0.00    +0.030 C 
ATOM      2  C   UNL     1      50.260  55.655  20.595  1.00  0.00    +0.141 C 
ENDROOT
BRANCH   2   3
ATOM      3  C   UNL     1      49.110  55.677  19.577  1.00  0.00    +0.237 C 
ATOM      4  O   UNL     1      48.292  54.764  19.516  1.00  0.00    -0.273 OA
ATOM      5  N   UNL     1      49.163  56.773  18.731  1.00  0.00    -0.324 N 
ATOM      6  H   UNL     1      49.843  57.493  18.964  1.00  0.00    +0.170 HD
BRANCH   5   7
ATOM      7  C   UNL     1      48.273  57.128  17.691  1.00  0.00    +0.055 A 
ATOM      8  C   UNL     1      48.189  56.426  16.485  1.00  0.00    +0.027 A 
ATOM      9  C   UNL     1      47.439  58.251  17.885  1.00  0.00    +0.036 A 
ATOM     10  C   UNL     1      47.288  56.822  15.491  1.00  0.00    +0.002 A 
ATOM     11  C   UNL     1      46.533  58.635  16.885  1.00  0.00    +0.017 A 
ATOM     12  C   UNL     1      46.462  57.922  15.690  1.00  0.00    +0.001 A 
BRANCH   9  13
ATOM     13  S   UNL     1      47.488  59.198  19.414  1.00  0.00    -0.088 SA
BRANCH  13  14
ATOM     14  C   UNL     1      46.859  60.779  18.873  1.00  0.00    +0.012 A 
ATOM     15  C   UNL     1      45.591  61.186  19.301  1.00  0.00    +0.015 A 
ATOM     16  C   UNL     1      47.612  61.632  18.058  1.00  0.00    +0.015 A 
ATOM     17  C   UNL     1      45.075  62.423  18.905  1.00  0.00    +0.001 A 
ATOM     18  C   UNL     1      47.096  62.867  17.662  1.00  0.00    +0.001 A 
ATOM     19  C   UNL     1      45.827  63.261  18.085  1.00  0.00    +0.000 A 
ENDBRANCH  13  14
ENDBRANCH   9  13
ENDBRANCH   5   7
ENDBRANCH   2   3
BRANCH   2  20
ATOM     20  S   UNL     1      51.902  55.599  19.781  1.00  0.00    -0.073 SA
BRANCH  20  21
ATOM     21  C   UNL     1      52.108  53.841  19.653  1.00  0.00    +0.195 A 
ATOM     22  N   UNL     1      52.375  53.346  18.451  1.00  0.00    -0.187 NA
ATOM     23  N   UNL     1      52.025  53.148  20.780  1.00  0.00    -0.187 NA
ATOM     24  C   UNL     1      52.530  52.035  18.430  1.00  0.00    +0.225 A 
ATOM     25  C   UNL     1      52.190  51.847  20.632  1.00  0.00    +0.225 A 
ATOM     26  N   UNL     1      52.474  51.243  19.490  1.00  0.00    -0.177 NA
BRANCH  24  27
ATOM     27  N   UNL     1      52.817  51.451  17.213  1.00  0.00    -0.368 N 
ATOM     28  H   UNL     1      53.584  51.925  16.757  1.00  0.00    +0.159 HD
ATOM     29  H   UNL     1      51.975  51.293  16.679  1.00  0.00    +0.159 HD
ENDBRANCH  24  27
BRANCH  25  30
ATOM     30  N   UNL     1      52.103  51.065  21.764  1.00  0.00    -0.368 N 
ATOM     31  H   UNL     1      52.464  51.540  22.576  1.00  0.00    +0.159 HD
ATOM     32  H   UNL     1      51.203  50.610  21.833  1.00  0.00    +0.159 HD
ENDBRANCH  25  30
ENDBRANCH  20  21
ENDBRANCH   2  20
TORSDOF 8
ENDMDL
MODEL 4
REMARK VINA RESULT:    -6.914      5.642      9.173
REMARK INTER + INTRA:         -10.950
REMARK INTER:                 -10.495
REMARK INTRA:                  -0.455
REMARK UNBOUND:                -1.206
REMARK SMILES C[C@H](Sc1nc(N)nc(N)n1)C(=O)Nc1ccccc1Sc1ccccc1
REMARK SMILES IDX 1 1 2 2 12 3 13 4 14 5 15 7 16 8 20 9 17 10 19 11 18 12
REMARK SMILES IDX 21 13 22 14 23 15 27 16 24 17 26 18 25 19 3 20 4 21 11 22
REMARK SMILES IDX 5 23 9 24 6 25 8 26 10 27 7 30
REMARK H PARENT 14 6 10 28 10 29 7 31 7 32
ROOT
ATOM      1  C   UNL     1      47.947  57.943  21.044  1.00  0.00    +0.030 C 
ATOM      2  C   UNL     1      48.757  57.109  20.055  1.00  0.00    +0.141 C 
ENDROOT
BRANCH   2   3
ATOM      3  C   UNL     1      48.246  57.248  18.613  1.00  0.00    +0.237 C 
ATOM      4  O   UNL     1      48.653  56.514  17.716  1.00  0.00    -0.273 OA
ATOM      5  N   UNL     1      47.370  58.309  18.453  1.00  0.00    -0.324 N 
ATOM      6  H   UNL     1      47.055  58.768  19.304  1.00  0.00    +0.170 HD
BRANCH   5   7
ATOM      7  C   UNL     1      46.698  58.729  17.282  1.00  0.00    +0.055 A 
ATOM      8  C   UNL     1      46.713  58.001  16.089  1.00  0.00    +0.027 A 
ATOM      9  C   UNL     1      45.984  59.947  17.328  1.00  0.00    +0.036 A 
ATOM     10  C   UNL     1      46.027  58.465  14.962  1.00  0.00    +0.002 A 
ATOM     11  C   UNL     1      45.293  60.400  16.194  1.00  0.00    +0.017 A 
ATOM     12  C   UNL     1      45.318  59.660  15.014  1.00  0.00    +0.001 A 
BRANCH   9  13
ATOM     13  S   UNL     1      45.914  60.933  18.831  1.00  0.00    -0.088 SA
BRANCH  13  14
ATOM     14  C   UNL     1      46.017  62.590  18.173  1.00  0.00    +0.012 A 
ATOM     15  C   UNL     1      47.230  63.032  17.635  1.00  0.00    +0.015 A 
ATOM     16  C   UNL     1      44.908  63.445  18.156  1.00  0.00    +0.015 A 
ATOM     17  C   UNL     1      47.338  64.320  17.101  1.00  0.00    +0.001 A 
ATOM     18  C   UNL     1      45.018  64.731  17.623  1.00  0.00    +0.001 A 
ATOM     19  C   UNL     1      46.233  65.168  17.098  1.00  0.00    +0.000 A 
ENDBRANCH  13  14
ENDBRANCH   9  13
ENDBRANCH   5   7
ENDBRANCH   2   3
BRANCH   2  20
ATOM     20  S   UNL     1      50.548  57.474  20.193  1.00  0.00    -0.073 SA
BRANCH  20  21
ATOM     21  C   UNL     1      51.067  56.056  21.124  1.00  0.00    +0.195 A 
ATOM     22  N   UNL     1      51.326  54.944  20.447  1.00  0.00    -0.187 NA
ATOM     23  N   UNL     1      51.205  56.220  22.433  1.00  0.00    -0.187 NA
ATOM     24  C   UNL     1      51.721  53.933  21.199  1.00  0.00    +0.225 A 
ATOM     25  C   UNL     1      51.597  55.138  23.079  1.00  0.00    +0.225 A 
ATOM     26  N   UNL     1      51.897  53.982  22.510  1.00  0.00    -0.177 NA
BRANCH  24  27
ATOM     27  N   UNL     1      52.014  52.746  20.559  1.00  0.00    -0.368 N 
ATOM     28  H   UNL     1      51.226  52.425  20.015  1.00  0.00    +0.159 HD
ATOM     29  H   UNL     1      52.448  52.091  21.193  1.00  0.00    +0.159 HD
ENDBRANCH  24  27
BRANCH  25  30
ATOM     30  N   UNL     1      51.747  55.235  24.445  1.00  0.00    -0.368 N 
ATOM     31  H   UNL     1      51.699  56.192  24.759  1.00  0.00    +0.159 HD
ATOM     32  H   UNL     1      51.196  54.542  24.930  1.00  0.00    +0.159 HD
ENDBRANCH  25  30
ENDBRANCH  20  21
ENDBRANCH   2  20
TORSDOF 8
ENDMDL
MODEL 5
REMARK VINA RESULT:    -6.516     10.049     13.219
REMARK INTER + INTRA:         -10.388
REMARK INTER:                  -8.870
REMARK INTRA:                  -1.519
REMARK UNBOUND:                -1.206
REMARK SMILES C[C@H](Sc1nc(N)nc(N)n1)C(=O)Nc1ccccc1Sc1ccccc1
REMARK SMILES IDX 1 1 2 2 12 3 13 4 14 5 15 7 16 8 20 9 17 10 19 11 18 12
REMARK SMILES IDX 21 13 22 14 23 15 27 16 24 17 26 18 25 19 3 20 4 21 11 22
REMARK SMILES IDX 5 23 9 24 6 25 8 26 10 27 7 30
REMARK H PARENT 14 6 10 28 10 29 7 31 7 32
ROOT
ATOM      1  C   UNL     1      39.943  66.176  17.932  1.00  0.00    +0.030 C 
ATOM      2  C   UNL     1      40.855  64.952  17.957  1.00  0.00    +0.141 C 
ENDROOT
BRANCH   2   3
ATOM      3  C   UNL     1      42.319  65.316  18.248  1.00  0.00    +0.237 C 
ATOM      4  O   UNL     1      42.613  66.164  19.086  1.00  0.00    -0.273 OA
ATOM      5  N   UNL     1      43.211  64.649  17.425  1.00  0.00    -0.324 N 
ATOM      6  H   UNL     1      42.826  63.908  16.844  1.00  0.00    +0.170 HD
BRANCH   5   7
ATOM      7  C   UNL     1      44.623  64.722  17.413  1.00  0.00    +0.055 A 
ATOM      8  C   UNL     1      45.329  65.792  16.856  1.00  0.00    +0.027 A 
ATOM      9  C   UNL     1      45.348  63.655  17.989  1.00  0.00    +0.036 A 
ATOM     10  C   UNL     1      46.727  65.812  16.875  1.00  0.00    +0.002 A 
ATOM     11  C   UNL     1      46.751  63.687  18.009  1.00  0.00    +0.017 A 
ATOM     12  C   UNL     1      47.437  64.763  17.450  1.00  0.00    +0.001 A 
BRANCH   9  13
ATOM     13  S   UNL     1      44.508  62.248  18.731  1.00  0.00    -0.088 SA
BRANCH  13  14
ATOM     14  C   UNL     1      45.643  60.920  18.360  1.00  0.00    +0.012 A 
ATOM     15  C   UNL     1      46.541  60.501  19.348  1.00  0.00    +0.015 A 
ATOM     16  C   UNL     1      45.636  60.270  17.120  1.00  0.00    +0.015 A 
ATOM     17  C   UNL     1      47.433  59.456  19.092  1.00  0.00    +0.001 A 
ATOM     18  C   UNL     1      46.529  59.227  16.866  1.00  0.00    +0.001 A 
ATOM     19  C   UNL     1      47.427  58.821  17.852  1.00  0.00    +0.000 A 
ENDBRANCH  13  14
ENDBRANCH   9  13
ENDBRANCH   5   7
ENDBRANCH   2   3
BRANCH   2  20
ATOM     20  S   UNL     1      40.218  63.675  19.108  1.00  0.00    -0.073 SA
BRANCH  20  21
ATOM     21  C   UNL     1      40.706  62.214  18.227  1.00  0.00    +0.195 A 
ATOM     22  N   UNL     1      41.235  62.379  17.022  1.00  0.00    -0.187 NA
ATOM     23  N   UNL     1      40.549  61.058  18.858  1.00  0.00    -0.187 NA
ATOM     24  C   UNL     1      41.589  61.253  16.429  1.00  0.00    +0.225 A 
ATOM     25  C   UNL     1      40.931  60.003  18.163  1.00  0.00    +0.225 A 
ATOM     26  N   UNL     1      41.483  60.046  16.961  1.00  0.00    -0.177 NA
BRANCH  24  27
ATOM     27  N   UNL     1      42.153  61.349  15.174  1.00  0.00    -0.368 N 
ATOM     28  H   UNL     1      42.000  62.266  14.778  1.00  0.00    +0.159 HD
ATOM     29  H   UNL     1      41.919  60.547  14.608  1.00  0.00    +0.159 HD
ENDBRANCH  24  27
BRANCH  25  30
ATOM     30  N   UNL     1      40.781  58.767  18.754  1.00  0.00    -0.368 N 
ATOM     31  H   UNL     1      41.672  58.344  18.965  1.00  0.00    +0.159 HD
ATOM     32  H   UNL     1      40.073  58.783  19.473  1.00  0.00    +0.159 HD
ENDBRANCH  25  30
ENDBRANCH  20  21
ENDBRANCH   2  20
TORSDOF 8
ENDMDL
