MODEL 1
REMARK VINA RESULT:    -8.701      0.000      0.000
REMARK INTER + INTRA:         -15.437
REMARK INTER:                 -13.788
REMARK INTRA:                  -1.649
REMARK UNBOUND:                -1.649
REMARK SMILES CC(C)CCOc1ccccc1C(=O)NC(=S)Nc1ccc(S(=O)(=O)NC[C@@H]2CCCO2)cc1
REMARK SMILES IDX 7 1 8 2 9 3 10 4 11 5 12 6 6 7 5 8 4 9 2 10 1 11 3 12 13 13
REMARK SMILES IDX 14 14 15 15 16 16 17 17 18 18 19 21 20 22 34 23 21 24 33 25
REMARK SMILES IDX 22 26 23 27 24 28 25 29 26 30 27 32 28 33 29 34 32 35 30 36
REMARK SMILES IDX 31 37
REMARK H PARENT 15 19 18 20 26 31
ROOT
ATOM      1  C   UNL     1      49.655  55.142  20.458  1.00  0.00    +0.132 A 
ATOM      2  C   UNL     1      50.587  54.161  20.828  1.00  0.00    +0.047 A 
ATOM      3  C   UNL     1      51.573  54.436  21.780  1.00  0.00    +0.004 A 
ATOM      4  C   UNL     1      51.644  55.691  22.372  1.00  0.00    +0.001 A 
ATOM      5  C   UNL     1      50.735  56.681  22.001  1.00  0.00    +0.018 A 
ATOM      6  C   UNL     1      49.744  56.424  21.037  1.00  0.00    +0.082 A 
ENDROOT
BRANCH   1   7
ATOM      7  O   UNL     1      48.647  54.925  19.553  1.00  0.00    -0.493 OA
BRANCH   7   8
ATOM      8  C   UNL     1      49.009  54.595  18.208  1.00  0.00    +0.230 C 
BRANCH   8   9
ATOM      9  C   UNL     1      48.095  53.471  17.710  1.00  0.00    +0.044 C 
BRANCH   9  10
ATOM     10  C   UNL     1      48.805  52.190  17.219  1.00  0.00    -0.014 C 
ATOM     11  C   UNL     1      47.849  51.115  16.709  1.00  0.00    +0.007 C 
ATOM     12  C   UNL     1      49.733  51.608  18.288  1.00  0.00    +0.007 C 
ENDBRANCH   9  10
ENDBRANCH   8   9
ENDBRANCH   7   8
ENDBRANCH   1   7
BRANCH   6  13
ATOM     13  C   UNL     1      48.841  57.569  20.693  1.00  0.00    +0.261 C 
ATOM     14  O   UNL     1      48.522  58.388  21.554  1.00  0.00    -0.269 OA
ATOM     15  N   UNL     1      48.444  57.689  19.368  1.00  0.00    -0.299 N 
ATOM     16  C   UNL     1      47.614  58.626  18.767  1.00  0.00    +0.177 C 
ATOM     17  S   UNL     1      47.411  58.469  17.116  1.00  0.00    -0.040 S 
ATOM     18  N   UNL     1      47.097  59.562  19.633  1.00  0.00    -0.332 N 
ATOM     19  H   UNL     1      48.769  56.968  18.731  1.00  0.00    +0.172 HD
ATOM     20  H   UNL     1      47.505  59.489  20.567  1.00  0.00    +0.169 HD
BRANCH  18  21
ATOM     21  C   UNL     1      46.146  60.596  19.499  1.00  0.00    +0.040 A 
ATOM     22  C   UNL     1      44.828  60.190  19.222  1.00  0.00    +0.027 A 
ATOM     23  C   UNL     1      46.416  61.963  19.578  1.00  0.00    +0.027 A 
ATOM     24  C   UNL     1      43.801  61.124  19.050  1.00  0.00    +0.024 A 
ATOM     25  C   UNL     1      45.397  62.908  19.403  1.00  0.00    +0.024 A 
ATOM     26  C   UNL     1      44.092  62.484  19.151  1.00  0.00    +0.082 A 
BRANCH  26  27
ATOM     27  S   UNL     1      42.805  63.677  18.896  1.00  0.00    +0.240 S 
ATOM     28  O   UNL     1      42.114  63.365  17.665  1.00  0.00    -0.207 OA
ATOM     29  O   UNL     1      42.101  63.836  20.149  1.00  0.00    -0.207 OA
BRANCH  27  30
ATOM     30  N   UNL     1      43.686  65.081  18.665  1.00  0.00    -0.209 NA
ATOM     31  H   UNL     1      43.871  65.591  19.531  1.00  0.00    +0.141 HD
BRANCH  30  32
ATOM     32  C   UNL     1      43.401  65.909  17.483  1.00  0.00    +0.130 C 
BRANCH  32  33
ATOM     33  C   UNL     1      44.625  65.941  16.562  1.00  0.00    +0.133 C 
ATOM     34  C   UNL     1      45.102  64.576  16.091  1.00  0.00    +0.036 C 
ATOM     35  O   UNL     1      45.747  66.555  17.232  1.00  0.00    -0.377 OA
ATOM     36  C   UNL     1      46.555  64.854  15.791  1.00  0.00    +0.031 C 
ATOM     37  C   UNL     1      46.929  65.805  16.908  1.00  0.00    +0.160 C 
ENDBRANCH  32  33
ENDBRANCH  30  32
ENDBRANCH  27  30
ENDBRANCH  26  27
ENDBRANCH  18  21
ENDBRANCH   6  13
TORSDOF 10
ENDMDL
MODEL 2
REMARK VINA RESULT:    -8.481      6.105     11.886
REMARK INTER + INTRA:         -15.088
REMARK INTER:                 -13.943
REMARK INTRA:                  -1.146
REMARK UNBOUND:                -1.649
REMARK SMILES CC(C)CCOc1ccccc1C(=O)NC(=S)Nc1ccc(S(=O)(=O)NC[C@@H]2CCCO2)cc1
REMARK SMILES IDX 7 1 8 2 9 3 10 4 11 5 12 6 6 7 5 8 4 9 2 10 1 11 3 12 13 13
REMARK SMILES IDX 14 14 15 15 16 16 17 17 18 18 19 21 20 22 34 23 21 24 33 25
REMARK SMILES IDX 22 26 23 27 24 28 25 29 26 30 27 32 28 33 29 34 32 35 30 36
REMARK SMILES IDX 31 37
REMARK H PARENT 15 19 18 20 26 31
ROOT
ATOM      1  C   UNL     1      51.146  57.177  21.115  1.00  0.00    +0.132 A 
ATOM      2  C   UNL     1      51.770  58.307  21.663  1.00  0.00    +0.047 A 
ATOM      3  C   UNL     1      53.139  58.526  21.481  1.00  0.00    +0.004 A 
ATOM      4  C   UNL     1      53.902  57.619  20.755  1.00  0.00    +0.001 A 
ATOM      5  C   UNL     1      53.299  56.482  20.220  1.00  0.00    +0.018 A 
ATOM      6  C   UNL     1      51.925  56.242  20.403  1.00  0.00    +0.082 A 
ENDROOT
BRANCH   1   7
ATOM      7  O   UNL     1      49.803  56.922  21.233  1.00  0.00    -0.493 OA
BRANCH   7   8
ATOM      8  C   UNL     1      48.974  57.937  21.807  1.00  0.00    +0.230 C 
BRANCH   8   9
ATOM      9  C   UNL     1      47.739  58.129  20.920  1.00  0.00    +0.044 C 
BRANCH   9  10
ATOM     10  C   UNL     1      48.005  58.684  19.503  1.00  0.00    -0.014 C 
ATOM     11  C   UNL     1      47.114  59.866  19.129  1.00  0.00    +0.007 C 
ATOM     12  C   UNL     1      47.908  57.591  18.436  1.00  0.00    +0.007 C 
ENDBRANCH   9  10
ENDBRANCH   8   9
ENDBRANCH   7   8
ENDBRANCH   1   7
BRANCH   6  13
ATOM     13  C   UNL     1      51.389  54.974  19.810  1.00  0.00    +0.261 C 
ATOM     14  O   UNL     1      50.735  55.003  18.769  1.00  0.00    -0.269 OA
ATOM     15  N   UNL     1      51.717  53.786  20.451  1.00  0.00    -0.299 N 
ATOM     16  C   UNL     1      51.359  52.480  20.144  1.00  0.00    +0.177 C 
ATOM     17  S   UNL     1      51.999  51.297  21.135  1.00  0.00    -0.040 S 
ATOM     18  N   UNL     1      50.539  52.361  19.046  1.00  0.00    -0.332 N 
ATOM     19  H   UNL     1      52.270  53.867  21.299  1.00  0.00    +0.172 HD
ATOM     20  H   UNL     1      50.420  53.250  18.556  1.00  0.00    +0.169 HD
BRANCH  18  21
ATOM     21  C   UNL     1      49.850  51.281  18.455  1.00  0.00    +0.040 A 
ATOM     22  C   UNL     1      49.207  51.552  17.235  1.00  0.00    +0.027 A 
ATOM     23  C   UNL     1      49.726  50.001  19.000  1.00  0.00    +0.027 A 
ATOM     24  C   UNL     1      48.477  50.566  16.563  1.00  0.00    +0.024 A 
ATOM     25  C   UNL     1      48.993  49.007  18.339  1.00  0.00    +0.024 A 
ATOM     26  C   UNL     1      48.382  49.291  17.117  1.00  0.00    +0.082 A 
BRANCH  26  27
ATOM     27  S   UNL     1      47.426  48.044  16.294  1.00  0.00    +0.240 S 
ATOM     28  O   UNL     1      47.474  48.283  14.869  1.00  0.00    -0.207 OA
ATOM     29  O   UNL     1      47.788  46.766  16.867  1.00  0.00    -0.207 OA
BRANCH  27  30
ATOM     30  N   UNL     1      45.882  48.388  16.837  1.00  0.00    -0.209 NA
ATOM     31  H   UNL     1      45.831  49.233  17.409  1.00  0.00    +0.141 HD
BRANCH  30  32
ATOM     32  C   UNL     1      45.018  47.275  17.262  1.00  0.00    +0.130 C 
BRANCH  32  33
ATOM     33  C   UNL     1      44.197  46.769  16.072  1.00  0.00    +0.133 C 
ATOM     34  C   UNL     1      44.830  45.617  15.307  1.00  0.00    +0.036 C 
ATOM     35  O   UNL     1      43.990  47.828  15.112  1.00  0.00    -0.377 OA
ATOM     36  C   UNL     1      44.191  45.772  13.948  1.00  0.00    +0.031 C 
ATOM     37  C   UNL     1      44.144  47.277  13.794  1.00  0.00    +0.160 C 
ENDBRANCH  32  33
ENDBRANCH  30  32
ENDBRANCH  27  30
ENDBRANCH  26  27
ENDBRANCH  18  21
ENDBRANCH   6  13
TORSDOF 10
ENDMDL
MODEL 3
REMARK VINA RESULT:    -8.266      3.543     10.709
REMARK INTER + INTRA:         -14.747
REMARK INTER:                 -13.687
REMARK INTRA:                  -1.060
REMARK UNBOUND:                -1.649
REMARK SMILES CC(C)CCOc1ccccc1C(=O)NC(=S)Nc1ccc(S(=O)(=O)NC[C@@H]2CCCO2)cc1
REMARK SMILES IDX 7 1 8 2 9 3 10 4 11 5 12 6 6 7 5 8 4 9 2 10 1 11 3 12 13 13
REMARK SMILES IDX 14 14 15 15 16 16 17 17 18 18 19 21 20 22 34 23 21 24 33 25
REMARK SMILES IDX 22 26 23 27 24 28 25 29 26 30 27 32 28 33 29 34 32 35 30 36
REMARK SMILES IDX 31 37
REMARK H PARENT 15 19 18 20 26 31
ROOT
ATOM      1  C   UNL     1      45.373  60.947  17.800  1.00  0.00    +0.132 A 
ATOM      2  C   UNL     1      44.627  62.126  17.937  1.00  0.00    +0.047 A 
ATOM      3  C   UNL     1      44.977  63.087  18.891  1.00  0.00    +0.004 A 
ATOM      4  C   UNL     1      46.071  62.881  19.722  1.00  0.00    +0.001 A 
ATOM      5  C   UNL     1      46.812  61.706  19.610  1.00  0.00    +0.018 A 
ATOM      6  C   UNL     1      46.467  60.724  18.662  1.00  0.00    +0.082 A 
ENDROOT
BRANCH   1   7
ATOM      7  O   UNL     1      45.099  59.981  16.864  1.00  0.00    -0.493 OA
BRANCH   7   8
ATOM      8  C   UNL     1      44.888  60.398  15.512  1.00  0.00    +0.230 C 
BRANCH   8   9
ATOM      9  C   UNL     1      45.262  59.244  14.575  1.00  0.00    +0.044 C 
BRANCH   9  10
ATOM     10  C   UNL     1      45.001  57.822  15.116  1.00  0.00    -0.014 C 
ATOM     11  C   UNL     1      46.214  56.898  15.026  1.00  0.00    +0.007 C 
ATOM     12  C   UNL     1      43.790  57.170  14.445  1.00  0.00    +0.007 C 
ENDBRANCH   9  10
ENDBRANCH   8   9
ENDBRANCH   7   8
ENDBRANCH   1   7
BRANCH   6  13
ATOM     13  C   UNL     1      47.313  59.488  18.650  1.00  0.00    +0.261 C 
ATOM     14  O   UNL     1      47.559  58.915  17.590  1.00  0.00    -0.269 OA
ATOM     15  N   UNL     1      47.844  59.070  19.863  1.00  0.00    -0.299 N 
ATOM     16  C   UNL     1      48.642  57.972  20.157  1.00  0.00    +0.177 C 
ATOM     17  S   UNL     1      49.130  57.829  21.748  1.00  0.00    -0.040 S 
ATOM     18  N   UNL     1      48.925  57.173  19.073  1.00  0.00    -0.332 N 
ATOM     19  H   UNL     1      47.591  59.617  20.681  1.00  0.00    +0.172 HD
ATOM     20  H   UNL     1      48.600  57.584  18.195  1.00  0.00    +0.169 HD
BRANCH  18  21
ATOM     21  C   UNL     1      49.574  55.929  18.920  1.00  0.00    +0.040 A 
ATOM     22  C   UNL     1      48.764  54.858  18.506  1.00  0.00    +0.027 A 
ATOM     23  C   UNL     1      50.922  55.680  19.183  1.00  0.00    +0.027 A 
ATOM     24  C   UNL     1      49.290  53.572  18.337  1.00  0.00    +0.024 A 
ATOM     25  C   UNL     1      51.459  54.396  19.023  1.00  0.00    +0.024 A 
ATOM     26  C   UNL     1      50.643  53.350  18.589  1.00  0.00    +0.082 A 
BRANCH  26  27
ATOM     27  S   UNL     1      51.312  51.717  18.416  1.00  0.00    +0.240 S 
ATOM     28  O   UNL     1      52.694  51.818  18.003  1.00  0.00    -0.207 OA
ATOM     29  O   UNL     1      50.917  50.957  19.582  1.00  0.00    -0.207 OA
BRANCH  27  30
ATOM     30  N   UNL     1      50.419  51.119  17.135  1.00  0.00    -0.209 NA
ATOM     31  H   UNL     1      49.879  51.836  16.646  1.00  0.00    +0.141 HD
BRANCH  30  32
ATOM     32  C   UNL     1      49.759  49.812  17.282  1.00  0.00    +0.130 C 
BRANCH  32  33
ATOM     33  C   UNL     1      48.249  50.007  17.452  1.00  0.00    +0.133 C 
ATOM     34  C   UNL     1      47.570  48.973  18.337  1.00  0.00    +0.036 C 
ATOM     35  O   UNL     1      47.582  49.945  16.172  1.00  0.00    -0.377 OA
ATOM     36  C   UNL     1      46.152  49.022  17.822  1.00  0.00    +0.031 C 
ATOM     37  C   UNL     1      46.364  49.200  16.334  1.00  0.00    +0.160 C 
ENDBRANCH  32  33
ENDBRANCH  30  32
ENDBRANCH  27  30
ENDBRANCH  26  27
ENDBRANCH  18  21
ENDBRANCH   6  13
TORSDOF 10
ENDMDL
MODEL 4
REMARK VINA RESULT:    -8.220      1.696      2.652
REMARK INTER + INTRA:         -14.674
REMARK INTER:                 -12.943
REMARK INTRA:                  -1.731
REMARK UNBOUND:                -1.649
REMARK SMILES CC(C)CCOc1ccccc1C(=O)NC(=S)Nc1ccc(S(=O)(=O)NC[C@@H]2CCCO2)cc1
REMARK SMILES IDX 7 1 8 2 9 3 10 4 11 5 12 6 6 7 5 8 4 9 2 10 1 11 3 12 13 13
REMARK SMILES IDX 14 14 15 15 16 16 17 17 18 18 19 21 20 22 34 23 21 24 33 25
REMARK SMILES IDX 22 26 23 27 24 28 25 29 26 30 27 32 28 33 29 34 32 35 30 36
REMARK SMILES IDX 31 37
REMARK H PARENT 15 19 18 20 26 31
ROOT
ATOM      1  C   UNL     1      49.742  54.939  20.533  1.00  0.00    +0.132 A 
ATOM      2  C   UNL     1      50.564  53.927  21.050  1.00  0.00    +0.047 A 
ATOM      3  C   UNL     1      51.497  54.207  22.053  1.00  0.00    +0.004 A 
ATOM      4  C   UNL     1      51.625  55.498  22.549  1.00  0.00    +0.001 A 
ATOM      5  C   UNL     1      50.828  56.518  22.032  1.00  0.00    +0.018 A 
ATOM      6  C   UNL     1      49.891  56.255  21.016  1.00  0.00    +0.082 A 
ENDROOT
BRANCH   1   7
ATOM      7  O   UNL     1      48.788  54.722  19.571  1.00  0.00    -0.493 OA
BRANCH   7   8
ATOM      8  C   UNL     1      49.227  54.362  18.258  1.00  0.00    +0.230 C 
BRANCH   8   9
ATOM      9  C   UNL     1      49.037  52.853  18.069  1.00  0.00    +0.044 C 
BRANCH   9  10
ATOM     10  C   UNL     1      48.253  52.423  16.810  1.00  0.00    -0.014 C 
ATOM     11  C   UNL     1      47.517  53.572  16.123  1.00  0.00    +0.007 C 
ATOM     12  C   UNL     1      47.282  51.278  17.107  1.00  0.00    +0.007 C 
ENDBRANCH   9  10
ENDBRANCH   8   9
ENDBRANCH   7   8
ENDBRANCH   1   7
BRANCH   6  13
ATOM     13  C   UNL     1      49.109  57.431  20.515  1.00  0.00    +0.261 C 
ATOM     14  O   UNL     1      48.945  58.418  21.230  1.00  0.00    -0.269 OA
ATOM     15  N   UNL     1      48.643  57.373  19.208  1.00  0.00    -0.299 N 
ATOM     16  C   UNL     1      47.892  58.293  18.487  1.00  0.00    +0.177 C 
ATOM     17  S   UNL     1      47.565  57.884  16.901  1.00  0.00    -0.040 S 
ATOM     18  N   UNL     1      47.547  59.421  19.196  1.00  0.00    -0.332 N 
ATOM     19  H   UNL     1      48.839  56.519  18.695  1.00  0.00    +0.172 HD
ATOM     20  H   UNL     1      48.004  59.456  20.109  1.00  0.00    +0.169 HD
BRANCH  18  21
ATOM     21  C   UNL     1      46.718  60.529  18.923  1.00  0.00    +0.040 A 
ATOM     22  C   UNL     1      47.294  61.557  18.156  1.00  0.00    +0.027 A 
ATOM     23  C   UNL     1      45.410  60.697  19.382  1.00  0.00    +0.027 A 
ATOM     24  C   UNL     1      46.577  62.714  17.836  1.00  0.00    +0.024 A 
ATOM     25  C   UNL     1      44.684  61.854  19.072  1.00  0.00    +0.024 A 
ATOM     26  C   UNL     1      45.266  62.852  18.290  1.00  0.00    +0.082 A 
BRANCH  26  27
ATOM     27  S   UNL     1      44.361  64.332  17.923  1.00  0.00    +0.240 S 
ATOM     28  O   UNL     1      43.550  64.681  19.069  1.00  0.00    -0.207 OA
ATOM     29  O   UNL     1      45.283  65.272  17.326  1.00  0.00    -0.207 OA
BRANCH  27  30
ATOM     30  N   UNL     1      43.348  63.815  16.696  1.00  0.00    -0.209 NA
ATOM     31  H   UNL     1      42.587  63.217  17.023  1.00  0.00    +0.141 HD
BRANCH  30  32
ATOM     32  C   UNL     1      43.939  63.446  15.400  1.00  0.00    +0.130 C 
BRANCH  32  33
ATOM     33  C   UNL     1      43.660  61.970  15.101  1.00  0.00    +0.133 C 
ATOM     34  C   UNL     1      42.703  61.295  16.072  1.00  0.00    +0.036 C 
ATOM     35  O   UNL     1      44.884  61.204  15.141  1.00  0.00    -0.377 OA
ATOM     36  C   UNL     1      43.109  59.848  15.937  1.00  0.00    +0.031 C 
ATOM     37  C   UNL     1      44.613  59.956  15.801  1.00  0.00    +0.160 C 
ENDBRANCH  32  33
ENDBRANCH  30  32
ENDBRANCH  27  30
ENDBRANCH  26  27
ENDBRANCH  18  21
ENDBRANCH   6  13
TORSDOF 10
ENDMDL
MODEL 5
REMARK VINA RESULT:    -8.129      1.814      3.005
REMARK INTER + INTRA:         -14.530
REMARK INTER:                 -13.292
REMARK INTRA:                  -1.239
REMARK UNBOUND:                -1.649
REMARK SMILES CC(C)CCOc1ccccc1C(=O)NC(=S)Nc1ccc(S(=O)(=O)NC[C@@H]2CCCO2)cc1
REMARK SMILES IDX 7 1 8 2 9 3 10 4 11 5 12 6 6 7 5 8 4 9 2 10 1 11 3 12 13 13
REMARK SMILES IDX 14 14 15 15 16 16 17 17 18 18 19 21 20 22 34 23 21 24 33 25
REMARK SMILES IDX 22 26 23 27 24 28 25 29 26 30 27 32 28 33 29 34 32 35 30 36
REMARK SMILES IDX 31 37
REMARK H PARENT 15 19 18 20 26 31
ROOT
ATOM      1  C   UNL     1      49.734  54.297  20.281  1.00  0.00    +0.132 A 
ATOM      2  C   UNL     1      50.491  53.259  20.846  1.00  0.00    +0.047 A 
ATOM      3  C   UNL     1      51.429  53.524  21.849  1.00  0.00    +0.004 A 
ATOM      4  C   UNL     1      51.627  54.824  22.297  1.00  0.00    +0.001 A 
ATOM      5  C   UNL     1      50.894  55.867  21.733  1.00  0.00    +0.018 A 
ATOM      6  C   UNL     1      49.954  55.620  20.716  1.00  0.00    +0.082 A 
ENDROOT
BRANCH   1   7
ATOM      7  O   UNL     1      48.778  54.098  19.317  1.00  0.00    -0.493 OA
BRANCH   7   8
ATOM      8  C   UNL     1      49.187  53.519  18.074  1.00  0.00    +0.230 C 
BRANCH   8   9
ATOM      9  C   UNL     1      48.019  52.712  17.496  1.00  0.00    +0.044 C 
BRANCH   9  10
ATOM     10  C   UNL     1      48.289  51.211  17.253  1.00  0.00    -0.014 C 
ATOM     11  C   UNL     1      47.025  50.354  17.242  1.00  0.00    +0.007 C 
ATOM     12  C   UNL     1      49.302  50.646  18.251  1.00  0.00    +0.007 C 
ENDBRANCH   9  10
ENDBRANCH   8   9
ENDBRANCH   7   8
ENDBRANCH   1   7
BRANCH   6  13
ATOM     13  C   UNL     1      49.247  56.819  20.161  1.00  0.00    +0.261 C 
ATOM     14  O   UNL     1      49.119  57.834  20.843  1.00  0.00    -0.269 OA
ATOM     15  N   UNL     1      48.808  56.744  18.845  1.00  0.00    -0.299 N 
ATOM     16  C   UNL     1      48.123  57.679  18.080  1.00  0.00    +0.177 C 
ATOM     17  S   UNL     1      47.812  57.239  16.499  1.00  0.00    -0.040 S 
ATOM     18  N   UNL     1      47.822  58.845  18.746  1.00  0.00    -0.332 N 
ATOM     19  H   UNL     1      48.971  55.866  18.363  1.00  0.00    +0.172 HD
ATOM     20  H   UNL     1      48.259  58.885  19.669  1.00  0.00    +0.169 HD
BRANCH  18  21
ATOM     21  C   UNL     1      47.058  59.985  18.420  1.00  0.00    +0.040 A 
ATOM     22  C   UNL     1      47.132  61.057  19.327  1.00  0.00    +0.027 A 
ATOM     23  C   UNL     1      46.221  60.112  17.310  1.00  0.00    +0.027 A 
ATOM     24  C   UNL     1      46.405  62.234  19.121  1.00  0.00    +0.024 A 
ATOM     25  C   UNL     1      45.485  61.284  17.096  1.00  0.00    +0.024 A 
ATOM     26  C   UNL     1      45.590  62.345  17.996  1.00  0.00    +0.082 A 
BRANCH  26  27
ATOM     27  S   UNL     1      44.634  63.818  17.745  1.00  0.00    +0.240 S 
ATOM     28  O   UNL     1      45.523  64.958  17.743  1.00  0.00    -0.207 OA
ATOM     29  O   UNL     1      43.715  63.563  16.657  1.00  0.00    -0.207 OA
BRANCH  27  30
ATOM     30  N   UNL     1      43.715  63.867  19.141  1.00  0.00    -0.209 NA
ATOM     31  H   UNL     1      44.061  63.249  19.878  1.00  0.00    +0.141 HD
BRANCH  30  32
ATOM     32  C   UNL     1      42.251  63.960  19.022  1.00  0.00    +0.130 C 
BRANCH  32  33
ATOM     33  C   UNL     1      41.628  62.566  19.155  1.00  0.00    +0.133 C 
ATOM     34  C   UNL     1      42.605  61.469  19.548  1.00  0.00    +0.036 C 
ATOM     35  O   UNL     1      41.037  62.154  17.904  1.00  0.00    -0.377 OA
ATOM     36  C   UNL     1      41.915  60.243  18.999  1.00  0.00    +0.031 C 
ATOM     37  C   UNL     1      41.339  60.764  17.700  1.00  0.00    +0.160 C 
ENDBRANCH  32  33
ENDBRANCH  30  32
ENDBRANCH  27  30
ENDBRANCH  26  27
ENDBRANCH  18  21
ENDBRANCH   6  13
TORSDOF 10
ENDMDL
