MODEL 1
REMARK VINA RESULT:    -7.996      0.000      0.000
REMARK INTER + INTRA:         -14.090
REMARK INTER:                 -13.372
REMARK INTRA:                  -0.718
REMARK UNBOUND:                -0.718
REMARK SMILES CCCCN(C(=O)CSCc1ccccc1C)c1c(N)n(CCC)c(=O)[nH]c1=O
REMARK SMILES IDX 6 1 7 2 5 3 4 4 3 5 2 6 1 7 18 8 19 9 28 10 21 11 27 12
REMARK SMILES IDX 29 13 25 14 26 15 20 17 22 20 23 21 24 22 8 23 9 24 10 25
REMARK SMILES IDX 11 26 12 27 16 28 13 29 15 30 14 31 17 32
REMARK H PARENT 27 16 20 18 20 19
ROOT
ATOM      1  C   UNL     1      48.242  52.265  16.651  1.00  0.00    +0.237 C 
ATOM      2  O   UNL     1      47.764  52.793  15.642  1.00  0.00    -0.274 OA
ENDROOT
BRANCH   1   3
ATOM      3  N   UNL     1      48.763  50.957  16.606  1.00  0.00    -0.304 N 
BRANCH   3   4
ATOM      4  C   UNL     1      49.173  50.458  15.281  1.00  0.00    +0.126 C 
BRANCH   4   5
ATOM      5  C   UNL     1      48.679  49.032  15.002  1.00  0.00    +0.022 C 
BRANCH   5   6
ATOM      6  C   UNL     1      47.325  48.992  14.292  1.00  0.00    -0.002 C 
ATOM      7  C   UNL     1      46.286  48.150  15.017  1.00  0.00    +0.004 C 
ENDBRANCH   5   6
ENDBRANCH   4   5
ENDBRANCH   3   4
BRANCH   3   8
ATOM      8  C   UNL     1      49.324  50.325  17.723  1.00  0.00    +0.151 C 
ATOM      9  C   UNL     1      50.592  50.571  18.141  1.00  0.00    +0.137 C 
ATOM     10  C   UNL     1      48.470  49.390  18.516  1.00  0.00    +0.279 C 
ATOM     11  N   UNL     1      51.069  49.962  19.300  1.00  0.00    -0.278 N 
ATOM     12  N   UNL     1      49.051  48.820  19.601  1.00  0.00    -0.272 N 
ATOM     13  O   UNL     1      47.301  49.159  18.219  1.00  0.00    -0.267 OA
ATOM     14  C   UNL     1      50.316  49.059  20.044  1.00  0.00    +0.330 C 
ATOM     15  O   UNL     1      50.720  48.477  21.050  1.00  0.00    -0.248 OA
ATOM     16  H   UNL     1      48.494  48.181  20.147  1.00  0.00    +0.175 HD
BRANCH   9  17
ATOM     17  N   UNL     1      51.428  51.390  17.388  1.00  0.00    -0.383 N 
ATOM     18  H   UNL     1      51.924  50.876  16.667  1.00  0.00    +0.158 HD
ATOM     19  H   UNL     1      52.080  51.918  17.967  1.00  0.00    +0.158 HD
ENDBRANCH   9  17
BRANCH  11  20
ATOM     20  C   UNL     1      52.466  50.141  19.719  1.00  0.00    +0.129 C 
BRANCH  20  21
ATOM     21  C   UNL     1      52.722  51.543  20.277  1.00  0.00    +0.019 C 
ATOM     22  C   UNL     1      51.826  51.836  21.469  1.00  0.00    +0.006 C 
ENDBRANCH  20  21
ENDBRANCH  11  20
ENDBRANCH   3   8
ENDBRANCH   1   3
BRANCH   1  23
ATOM     23  C   UNL     1      48.241  52.965  18.016  1.00  0.00    +0.170 C 
BRANCH  23  24
ATOM     24  S   UNL     1      49.073  54.592  17.982  1.00  0.00    -0.147 SA
BRANCH  24  25
ATOM     25  C   UNL     1      49.695  54.709  19.694  1.00  0.00    +0.105 C 
BRANCH  25  26
ATOM     26  C   UNL     1      49.332  55.992  20.409  1.00  0.00    -0.035 A 
ATOM     27  C   UNL     1      48.119  56.623  20.068  1.00  0.00    +0.005 A 
ATOM     28  C   UNL     1      50.153  56.582  21.394  1.00  0.00    -0.047 A 
ATOM     29  C   UNL     1      47.733  57.819  20.672  1.00  0.00    +0.000 A 
ATOM     30  C   UNL     1      49.752  57.791  21.988  1.00  0.00    +0.004 A 
ATOM     31  C   UNL     1      48.551  58.404  21.631  1.00  0.00    +0.000 A 
ATOM     32  C   UNL     1      51.464  55.972  21.816  1.00  0.00    +0.044 C 
ENDBRANCH  25  26
ENDBRANCH  24  25
ENDBRANCH  23  24
ENDBRANCH   1  23
TORSDOF 12
ENDMDL
MODEL 2
REMARK VINA RESULT:    -7.663      3.054      7.464
REMARK INTER + INTRA:         -13.532
REMARK INTER:                 -12.663
REMARK INTRA:                  -0.869
REMARK UNBOUND:                -0.718
REMARK SMILES CCCCN(C(=O)CSCc1ccccc1C)c1c(N)n(CCC)c(=O)[nH]c1=O
REMARK SMILES IDX 6 1 7 2 5 3 4 4 3 5 2 6 1 7 18 8 19 9 28 10 21 11 27 12
REMARK SMILES IDX 29 13 25 14 26 15 20 17 22 20 23 21 24 22 8 23 9 24 10 25
REMARK SMILES IDX 11 26 12 27 16 28 13 29 15 30 14 31 17 32
REMARK H PARENT 27 16 20 18 20 19
ROOT
ATOM      1  C   UNL     1      49.554  52.509  17.702  1.00  0.00    +0.237 C 
ATOM      2  O   UNL     1      48.855  53.441  17.293  1.00  0.00    -0.274 OA
ENDROOT
BRANCH   1   3
ATOM      3  N   UNL     1      50.330  52.644  18.870  1.00  0.00    -0.304 N 
BRANCH   3   4
ATOM      4  C   UNL     1      51.073  51.448  19.306  1.00  0.00    +0.126 C 
BRANCH   4   5
ATOM      5  C   UNL     1      50.902  51.153  20.803  1.00  0.00    +0.022 C 
BRANCH   5   6
ATOM      6  C   UNL     1      50.705  49.667  21.107  1.00  0.00    -0.002 C 
ATOM      7  C   UNL     1      50.159  48.876  19.928  1.00  0.00    +0.004 C 
ENDBRANCH   5   6
ENDBRANCH   4   5
ENDBRANCH   3   4
BRANCH   3   8
ATOM      8  C   UNL     1      50.792  53.881  19.336  1.00  0.00    +0.151 C 
ATOM      9  C   UNL     1      50.010  54.729  20.052  1.00  0.00    +0.137 C 
ATOM     10  C   UNL     1      52.218  54.249  19.086  1.00  0.00    +0.279 C 
ATOM     11  N   UNL     1      50.550  55.916  20.547  1.00  0.00    -0.278 N 
ATOM     12  N   UNL     1      52.624  55.447  19.576  1.00  0.00    -0.272 N 
ATOM     13  O   UNL     1      52.990  53.507  18.485  1.00  0.00    -0.267 OA
ATOM     14  C   UNL     1      51.862  56.309  20.304  1.00  0.00    +0.330 C 
ATOM     15  O   UNL     1      52.357  57.365  20.695  1.00  0.00    -0.248 OA
ATOM     16  H   UNL     1      53.582  55.718  19.412  1.00  0.00    +0.175 HD
BRANCH   9  17
ATOM     17  N   UNL     1      48.664  54.439  20.249  1.00  0.00    -0.383 N 
ATOM     18  H   UNL     1      48.208  55.117  20.851  1.00  0.00    +0.158 HD
ATOM     19  H   UNL     1      48.516  53.492  20.595  1.00  0.00    +0.158 HD
ENDBRANCH   9  17
BRANCH  11  20
ATOM     20  C   UNL     1      49.699  56.891  21.243  1.00  0.00    +0.129 C 
BRANCH  20  21
ATOM     21  C   UNL     1      48.960  57.808  20.267  1.00  0.00    +0.019 C 
ATOM     22  C   UNL     1      47.485  57.916  20.617  1.00  0.00    +0.006 C 
ENDBRANCH  20  21
ENDBRANCH  11  20
ENDBRANCH   3   8
ENDBRANCH   1   3
BRANCH   1  23
ATOM     23  C   UNL     1      49.672  51.183  16.940  1.00  0.00    +0.170 C 
BRANCH  23  24
ATOM     24  S   UNL     1      48.277  50.893  15.796  1.00  0.00    -0.147 SA
BRANCH  24  25
ATOM     25  C   UNL     1      48.130  49.075  15.867  1.00  0.00    +0.105 C 
BRANCH  25  26
ATOM     26  C   UNL     1      46.938  48.571  16.649  1.00  0.00    -0.035 A 
ATOM     27  C   UNL     1      47.038  48.515  18.054  1.00  0.00    +0.005 A 
ATOM     28  C   UNL     1      45.737  48.151  16.035  1.00  0.00    -0.047 A 
ATOM     29  C   UNL     1      45.985  48.040  18.835  1.00  0.00    +0.000 A 
ATOM     30  C   UNL     1      44.688  47.669  16.837  1.00  0.00    +0.004 A 
ATOM     31  C   UNL     1      44.811  47.616  18.226  1.00  0.00    +0.000 A 
ATOM     32  C   UNL     1      45.549  48.178  14.542  1.00  0.00    +0.044 C 
ENDBRANCH  25  26
ENDBRANCH  24  25
ENDBRANCH  23  24
ENDBRANCH   1  23
TORSDOF 12
ENDMDL
MODEL 3
REMARK VINA RESULT:    -7.512      2.095      4.514
REMARK INTER + INTRA:         -13.280
REMARK INTER:                 -13.397
REMARK INTRA:                   0.117
REMARK UNBOUND:                -0.718
REMARK SMILES CCCCN(C(=O)CSCc1ccccc1C)c1c(N)n(CCC)c(=O)[nH]c1=O
REMARK SMILES IDX 6 1 7 2 5 3 4 4 3 5 2 6 1 7 18 8 19 9 28 10 21 11 27 12
REMARK SMILES IDX 29 13 25 14 26 15 20 17 22 20 23 21 24 22 8 23 9 24 10 25
REMARK SMILES IDX 11 26 12 27 16 28 13 29 15 30 14 31 17 32
REMARK H PARENT 27 16 20 18 20 19
ROOT
ATOM      1  C   UNL     1      48.343  51.927  17.182  1.00  0.00    +0.237 C 
ATOM      2  O   UNL     1      47.128  52.104  17.317  1.00  0.00    -0.274 OA
ENDROOT
BRANCH   1   3
ATOM      3  N   UNL     1      48.857  50.659  16.849  1.00  0.00    -0.304 N 
BRANCH   3   4
ATOM      4  C   UNL     1      50.168  50.309  17.427  1.00  0.00    +0.126 C 
BRANCH   4   5
ATOM      5  C   UNL     1      50.278  50.670  18.915  1.00  0.00    +0.022 C 
BRANCH   5   6
ATOM      6  C   UNL     1      51.260  49.782  19.681  1.00  0.00    -0.002 C 
ATOM      7  C   UNL     1      50.583  48.671  20.469  1.00  0.00    +0.004 C 
ENDBRANCH   5   6
ENDBRANCH   4   5
ENDBRANCH   3   4
BRANCH   3   8
ATOM      8  C   UNL     1      48.047  49.596  16.429  1.00  0.00    +0.151 C 
ATOM      9  C   UNL     1      47.329  48.839  17.297  1.00  0.00    +0.137 C 
ATOM     10  C   UNL     1      47.925  49.330  14.964  1.00  0.00    +0.279 C 
ATOM     11  N   UNL     1      46.487  47.840  16.810  1.00  0.00    -0.278 N 
ATOM     12  N   UNL     1      47.111  48.306  14.606  1.00  0.00    -0.272 N 
ATOM     13  O   UNL     1      48.511  50.007  14.125  1.00  0.00    -0.267 OA
ATOM     14  C   UNL     1      46.374  47.540  15.456  1.00  0.00    +0.330 C 
ATOM     15  O   UNL     1      45.669  46.642  14.998  1.00  0.00    -0.248 OA
ATOM     16  H   UNL     1      47.019  48.106  13.622  1.00  0.00    +0.175 HD
BRANCH   9  17
ATOM     17  N   UNL     1      47.470  49.026  18.668  1.00  0.00    -0.383 N 
ATOM     18  H   UNL     1      47.275  48.180  19.194  1.00  0.00    +0.158 HD
ATOM     19  H   UNL     1      46.908  49.803  19.016  1.00  0.00    +0.158 HD
ENDBRANCH   9  17
BRANCH  11  20
ATOM     20  C   UNL     1      45.772  46.949  17.734  1.00  0.00    +0.129 C 
BRANCH  20  21
ATOM     21  C   UNL     1      44.591  47.649  18.409  1.00  0.00    +0.019 C 
ATOM     22  C   UNL     1      44.281  47.031  19.763  1.00  0.00    +0.006 C 
ENDBRANCH  20  21
ENDBRANCH  11  20
ENDBRANCH   3   8
ENDBRANCH   1   3
BRANCH   1  23
ATOM     23  C   UNL     1      49.362  53.046  17.431  1.00  0.00    +0.170 C 
BRANCH  23  24
ATOM     24  S   UNL     1      48.604  54.558  18.121  1.00  0.00    -0.147 SA
BRANCH  24  25
ATOM     25  C   UNL     1      49.436  54.667  19.742  1.00  0.00    +0.105 C 
BRANCH  25  26
ATOM     26  C   UNL     1      49.223  55.973  20.473  1.00  0.00    -0.035 A 
ATOM     27  C   UNL     1      48.036  56.691  20.222  1.00  0.00    +0.005 A 
ATOM     28  C   UNL     1      50.159  56.505  21.387  1.00  0.00    -0.047 A 
ATOM     29  C   UNL     1      47.785  57.912  20.845  1.00  0.00    +0.000 A 
ATOM     30  C   UNL     1      49.893  57.741  22.001  1.00  0.00    +0.004 A 
ATOM     31  C   UNL     1      48.714  58.438  21.733  1.00  0.00    +0.000 A 
ATOM     32  C   UNL     1      51.451  55.803  21.710  1.00  0.00    +0.044 C 
ENDBRANCH  25  26
ENDBRANCH  24  25
ENDBRANCH  23  24
ENDBRANCH   1  23
TORSDOF 12
ENDMDL
MODEL 4
REMARK VINA RESULT:    -7.118      3.571      6.647
REMARK INTER + INTRA:         -12.621
REMARK INTER:                 -12.046
REMARK INTRA:                  -0.575
REMARK UNBOUND:                -0.718
REMARK SMILES CCCCN(C(=O)CSCc1ccccc1C)c1c(N)n(CCC)c(=O)[nH]c1=O
REMARK SMILES IDX 6 1 7 2 5 3 4 4 3 5 2 6 1 7 18 8 19 9 28 10 21 11 27 12
REMARK SMILES IDX 29 13 25 14 26 15 20 17 22 20 23 21 24 22 8 23 9 24 10 25
REMARK SMILES IDX 11 26 12 27 16 28 13 29 15 30 14 31 17 32
REMARK H PARENT 27 16 20 18 20 19
ROOT
ATOM      1  C   UNL     1      50.055  56.357  21.125  1.00  0.00    +0.237 C 
ATOM      2  O   UNL     1      50.104  56.992  22.183  1.00  0.00    -0.274 OA
ENDROOT
BRANCH   1   3
ATOM      3  N   UNL     1      51.150  55.580  20.695  1.00  0.00    -0.304 N 
BRANCH   3   4
ATOM      4  C   UNL     1      52.455  56.262  20.636  1.00  0.00    +0.126 C 
BRANCH   4   5
ATOM      5  C   UNL     1      52.333  57.758  20.314  1.00  0.00    +0.022 C 
BRANCH   5   6
ATOM      6  C   UNL     1      53.066  58.652  21.314  1.00  0.00    -0.002 C 
ATOM      7  C   UNL     1      54.078  57.902  22.168  1.00  0.00    +0.004 C 
ENDBRANCH   5   6
ENDBRANCH   4   5
ENDBRANCH   3   4
BRANCH   3   8
ATOM      8  C   UNL     1      51.168  54.183  20.779  1.00  0.00    +0.151 C 
ATOM      9  C   UNL     1      51.008  53.384  19.693  1.00  0.00    +0.137 C 
ATOM     10  C   UNL     1      51.435  53.552  22.107  1.00  0.00    +0.279 C 
ATOM     11  N   UNL     1      51.106  52.000  19.831  1.00  0.00    -0.278 N 
ATOM     12  N   UNL     1      51.465  52.197  22.133  1.00  0.00    -0.272 N 
ATOM     13  O   UNL     1      51.634  54.218  23.119  1.00  0.00    -0.267 OA
ATOM     14  C   UNL     1      51.317  51.376  21.057  1.00  0.00    +0.330 C 
ATOM     15  O   UNL     1      51.372  50.158  21.218  1.00  0.00    -0.248 OA
ATOM     16  H   UNL     1      51.638  51.751  23.021  1.00  0.00    +0.175 HD
BRANCH   9  17
ATOM     17  N   UNL     1      50.699  53.942  18.456  1.00  0.00    -0.383 N 
ATOM     18  H   UNL     1      51.528  54.217  17.939  1.00  0.00    +0.158 HD
ATOM     19  H   UNL     1      50.047  54.722  18.532  1.00  0.00    +0.158 HD
ENDBRANCH   9  17
BRANCH  11  20
ATOM     20  C   UNL     1      50.844  51.114  18.689  1.00  0.00    +0.129 C 
BRANCH  20  21
ATOM     21  C   UNL     1      49.361  50.755  18.569  1.00  0.00    +0.019 C 
ATOM     22  C   UNL     1      49.174  49.357  18.004  1.00  0.00    +0.006 C 
ENDBRANCH  20  21
ENDBRANCH  11  20
ENDBRANCH   3   8
ENDBRANCH   1   3
BRANCH   1  23
ATOM     23  C   UNL     1      48.842  56.424  20.189  1.00  0.00    +0.170 C 
BRANCH  23  24
ATOM     24  S   UNL     1      47.856  57.946  20.409  1.00  0.00    -0.147 SA
BRANCH  24  25
ATOM     25  C   UNL     1      47.732  58.543  18.688  1.00  0.00    +0.105 C 
BRANCH  25  26
ATOM     26  C   UNL     1      46.980  59.844  18.526  1.00  0.00    -0.035 A 
ATOM     27  C   UNL     1      47.122  60.825  19.528  1.00  0.00    +0.005 A 
ATOM     28  C   UNL     1      46.142  60.117  17.422  1.00  0.00    -0.047 A 
ATOM     29  C   UNL     1      46.441  62.039  19.453  1.00  0.00    +0.000 A 
ATOM     30  C   UNL     1      45.458  61.343  17.365  1.00  0.00    +0.004 A 
ATOM     31  C   UNL     1      45.607  62.297  18.372  1.00  0.00    +0.000 A 
ATOM     32  C   UNL     1      45.935  59.123  16.309  1.00  0.00    +0.044 C 
ENDBRANCH  25  26
ENDBRANCH  24  25
ENDBRANCH  23  24
ENDBRANCH   1  23
TORSDOF 12
ENDMDL
MODEL 5
REMARK VINA RESULT:    -6.826      7.513     11.652
REMARK INTER + INTRA:         -12.134
REMARK INTER:                 -11.311
REMARK INTRA:                  -0.823
REMARK UNBOUND:                -0.718
REMARK SMILES CCCCN(C(=O)CSCc1ccccc1C)c1c(N)n(CCC)c(=O)[nH]c1=O
REMARK SMILES IDX 6 1 7 2 5 3 4 4 3 5 2 6 1 7 18 8 19 9 28 10 21 11 27 12
REMARK SMILES IDX 29 13 25 14 26 15 20 17 22 20 23 21 24 22 8 23 9 24 10 25
REMARK SMILES IDX 11 26 12 27 16 28 13 29 15 30 14 31 17 32
REMARK H PARENT 27 16 20 18 20 19
ROOT
ATOM      1  C   UNL     1      45.831  60.577  17.824  1.00  0.00    +0.237 C 
ATOM      2  O   UNL     1      46.086  59.966  16.782  1.00  0.00    -0.274 OA
ENDROOT
BRANCH   1   3
ATOM      3  N   UNL     1      45.036  61.741  17.807  1.00  0.00    -0.304 N 
BRANCH   3   4
ATOM      4  C   UNL     1      45.534  62.864  16.992  1.00  0.00    +0.126 C 
BRANCH   4   5
ATOM      5  C   UNL     1      46.746  63.565  17.620  1.00  0.00    +0.022 C 
BRANCH   5   6
ATOM      6  C   UNL     1      47.122  64.868  16.914  1.00  0.00    -0.002 C 
ATOM      7  C   UNL     1      46.027  65.922  16.967  1.00  0.00    +0.004 C 
ENDBRANCH   5   6
ENDBRANCH   4   5
ENDBRANCH   3   4
BRANCH   3   8
ATOM      8  C   UNL     1      43.667  61.729  18.101  1.00  0.00    +0.151 C 
ATOM      9  C   UNL     1      42.779  60.969  17.410  1.00  0.00    +0.137 C 
ATOM     10  C   UNL     1      43.180  62.539  19.258  1.00  0.00    +0.279 C 
ATOM     11  N   UNL     1      41.439  60.949  17.796  1.00  0.00    -0.278 N 
ATOM     12  N   UNL     1      41.850  62.477  19.517  1.00  0.00    -0.272 N 
ATOM     13  O   UNL     1      43.938  63.211  19.952  1.00  0.00    -0.267 OA
ATOM     14  C   UNL     1      40.943  61.716  18.845  1.00  0.00    +0.330 C 
ATOM     15  O   UNL     1      39.762  61.748  19.186  1.00  0.00    -0.248 OA
ATOM     16  H   UNL     1      41.500  63.021  20.290  1.00  0.00    +0.175 HD
BRANCH   9  17
ATOM     17  N   UNL     1      43.194  60.253  16.292  1.00  0.00    -0.383 N 
ATOM     18  H   UNL     1      43.485  59.309  16.525  1.00  0.00    +0.158 HD
ATOM     19  H   UNL     1      43.924  60.736  15.769  1.00  0.00    +0.158 HD
ENDBRANCH   9  17
BRANCH  11  20
ATOM     20  C   UNL     1      40.445  60.208  17.007  1.00  0.00    +0.129 C 
BRANCH  20  21
ATOM     21  C   UNL     1      40.150  58.830  17.605  1.00  0.00    +0.019 C 
ATOM     22  C   UNL     1      40.729  57.718  16.746  1.00  0.00    +0.006 C 
ENDBRANCH  20  21
ENDBRANCH  11  20
ENDBRANCH   3   8
ENDBRANCH   1   3
BRANCH   1  23
ATOM     23  C   UNL     1      46.411  60.154  19.180  1.00  0.00    +0.170 C 
BRANCH  23  24
ATOM     24  S   UNL     1      47.812  58.993  19.022  1.00  0.00    -0.147 SA
BRANCH  24  25
ATOM     25  C   UNL     1      47.545  57.913  20.470  1.00  0.00    +0.105 C 
BRANCH  25  26
ATOM     26  C   UNL     1      48.766  57.136  20.910  1.00  0.00    -0.035 A 
ATOM     27  C   UNL     1      49.646  57.744  21.829  1.00  0.00    +0.005 A 
ATOM     28  C   UNL     1      49.063  55.838  20.441  1.00  0.00    -0.047 A 
ATOM     29  C   UNL     1      50.800  57.094  22.261  1.00  0.00    +0.000 A 
ATOM     30  C   UNL     1      50.235  55.200  20.881  1.00  0.00    +0.004 A 
ATOM     31  C   UNL     1      51.096  55.822  21.785  1.00  0.00    +0.000 A 
ATOM     32  C   UNL     1      48.176  55.119  19.459  1.00  0.00    +0.044 C 
ENDBRANCH  25  26
ENDBRANCH  24  25
ENDBRANCH  23  24
ENDBRANCH   1  23
TORSDOF 12
ENDMDL
