MODEL 1
REMARK VINA RESULT:    -8.761      0.000      0.000
REMARK INTER + INTRA:         -15.708
REMARK INTER:                 -13.882
REMARK INTRA:                  -1.827
REMARK UNBOUND:                -1.827
REMARK SMILES CC[NH+](CC)CCCNC(=O)C(=O)Nc1c(C(=O)Nc2cccc(F)c2)oc2ccccc12
REMARK SMILES IDX 9 1 10 2 11 3 8 5 7 6 6 7 3 8 2 10 1 11 4 12 5 13 12 14
REMARK SMILES IDX 13 15 14 16 15 18 33 19 16 20 32 21 28 22 27 23 31 24 29 25
REMARK SMILES IDX 30 26 17 27 18 28 19 29 20 31 21 32 26 33 22 34 24 35 23 36
REMARK SMILES IDX 25 37
REMARK H PARENT 9 4 3 9 14 17 19 30
ROOT
ATOM      1  N   UNL     1      50.063  50.761  16.074  1.00  0.00    -0.348 N 
ATOM      2  C   UNL     1      50.134  50.644  17.450  1.00  0.00    +0.309 C 
ATOM      3  O   UNL     1      49.779  49.676  18.102  1.00  0.00    -0.264 OA
ATOM      4  H   UNL     1      50.559  51.575  15.710  1.00  0.00    +0.163 HD
ENDROOT
BRANCH   1   5
ATOM      5  C   UNL     1      49.765  49.652  15.195  1.00  0.00    +0.122 C 
BRANCH   5   6
ATOM      6  C   UNL     1      48.409  49.779  14.491  1.00  0.00    +0.083 C 
BRANCH   6   7
ATOM      7  C   UNL     1      47.412  48.712  14.932  1.00  0.00    +0.264 C 
BRANCH   7   8
ATOM      8  N   UNL     1      47.289  48.679  16.452  1.00  0.00    -0.335 N 
ATOM      9  H   UNL     1      48.127  49.128  16.847  1.00  0.00    +0.348 HD
BRANCH   8  10
ATOM     10  C   UNL     1      47.277  47.245  16.976  1.00  0.00    +0.258 C 
ATOM     11  C   UNL     1      48.617  46.582  16.708  1.00  0.00    +0.071 C 
ENDBRANCH   8  10
BRANCH   8  12
ATOM     12  C   UNL     1      46.086  49.464  16.948  1.00  0.00    +0.258 C 
ATOM     13  C   UNL     1      45.172  48.565  17.762  1.00  0.00    +0.071 C 
ENDBRANCH   8  12
ENDBRANCH   7   8
ENDBRANCH   6   7
ENDBRANCH   5   6
ENDBRANCH   1   5
BRANCH   2  14
ATOM     14  C   UNL     1      50.683  51.906  18.150  1.00  0.00    +0.313 C 
ATOM     15  O   UNL     1      51.896  52.017  18.246  1.00  0.00    -0.263 OA
ATOM     16  N   UNL     1      49.683  52.771  18.512  1.00  0.00    -0.314 N 
ATOM     17  H   UNL     1      48.735  52.501  18.232  1.00  0.00    +0.170 HD
BRANCH  16  18
ATOM     18  C   UNL     1      49.808  54.022  19.105  1.00  0.00    +0.101 A 
ATOM     19  C   UNL     1      50.435  54.473  20.312  1.00  0.00    +0.045 A 
ATOM     20  C   UNL     1      49.257  55.154  18.513  1.00  0.00    +0.216 A 
ATOM     21  C   UNL     1      51.136  53.907  21.397  1.00  0.00    +0.014 A 
ATOM     22  C   UNL     1      50.229  55.852  20.346  1.00  0.00    +0.137 A 
ATOM     23  O   UNL     1      49.519  56.262  19.264  1.00  0.00    -0.449 OA
ATOM     24  C   UNL     1      51.605  54.733  22.431  1.00  0.00    +0.001 A 
ATOM     25  C   UNL     1      50.685  56.700  21.355  1.00  0.00    +0.048 A 
ATOM     26  C   UNL     1      51.386  56.107  22.406  1.00  0.00    +0.004 A 
BRANCH  20  27
ATOM     27  C   UNL     1      48.515  55.304  17.274  1.00  0.00    +0.293 C 
ATOM     28  O   UNL     1      48.218  54.327  16.593  1.00  0.00    -0.265 OA
ATOM     29  N   UNL     1      48.206  56.620  16.979  1.00  0.00    -0.319 N 
ATOM     30  H   UNL     1      48.512  57.295  17.675  1.00  0.00    +0.170 HD
BRANCH  29  31
ATOM     31  C   UNL     1      47.500  57.120  15.869  1.00  0.00    +0.044 A 
ATOM     32  C   UNL     1      46.463  58.028  16.132  1.00  0.00    +0.026 A 
ATOM     33  C   UNL     1      47.774  56.771  14.547  1.00  0.00    +0.065 A 
ATOM     34  C   UNL     1      45.709  58.575  15.088  1.00  0.00    +0.005 A 
ATOM     35  C   UNL     1      47.018  57.323  13.516  1.00  0.00    +0.125 A 
ATOM     36  C   UNL     1      45.990  58.220  13.773  1.00  0.00    +0.039 A 
ATOM     37  F   UNL     1      47.295  56.986  12.248  1.00  0.00    -0.207 F 
ENDBRANCH  29  31
ENDBRANCH  20  27
ENDBRANCH  16  18
ENDBRANCH   2  14
TORSDOF 10
ENDMDL
MODEL 2
REMARK VINA RESULT:    -8.054      2.662      6.969
REMARK INTER + INTRA:         -14.589
REMARK INTER:                 -13.087
REMARK INTRA:                  -1.503
REMARK UNBOUND:                -1.827
REMARK SMILES CC[NH+](CC)CCCNC(=O)C(=O)Nc1c(C(=O)Nc2cccc(F)c2)oc2ccccc12
REMARK SMILES IDX 9 1 10 2 11 3 8 5 7 6 6 7 3 8 2 10 1 11 4 12 5 13 12 14
REMARK SMILES IDX 13 15 14 16 15 18 33 19 16 20 32 21 28 22 27 23 31 24 29 25
REMARK SMILES IDX 30 26 17 27 18 28 19 29 20 31 21 32 26 33 22 34 24 35 23 36
REMARK SMILES IDX 25 37
REMARK H PARENT 9 4 3 9 14 17 19 30
ROOT
ATOM      1  N   UNL     1      47.227  57.395  16.443  1.00  0.00    -0.348 N 
ATOM      2  C   UNL     1      47.426  58.192  17.555  1.00  0.00    +0.309 C 
ATOM      3  O   UNL     1      47.231  59.396  17.614  1.00  0.00    -0.264 OA
ATOM      4  H   UNL     1      47.289  56.396  16.643  1.00  0.00    +0.163 HD
ENDROOT
BRANCH   1   5
ATOM      5  C   UNL     1      46.538  57.846  15.253  1.00  0.00    +0.122 C 
BRANCH   5   6
ATOM      6  C   UNL     1      46.818  56.976  14.022  1.00  0.00    +0.083 C 
BRANCH   6   7
ATOM      7  C   UNL     1      45.596  56.180  13.571  1.00  0.00    +0.264 C 
BRANCH   7   8
ATOM      8  N   UNL     1      45.361  56.349  12.073  1.00  0.00    -0.335 N 
ATOM      9  H   UNL     1      45.840  55.578  11.589  1.00  0.00    +0.348 HD
BRANCH   8  10
ATOM     10  C   UNL     1      45.985  57.642  11.556  1.00  0.00    +0.258 C 
ATOM     11  C   UNL     1      46.115  57.588  10.044  1.00  0.00    +0.071 C 
ENDBRANCH   8  10
BRANCH   8  12
ATOM     12  C   UNL     1      43.887  56.257  11.710  1.00  0.00    +0.258 C 
ATOM     13  C   UNL     1      43.350  54.875  12.041  1.00  0.00    +0.071 C 
ENDBRANCH   8  12
ENDBRANCH   7   8
ENDBRANCH   6   7
ENDBRANCH   5   6
ENDBRANCH   1   5
BRANCH   2  14
ATOM     14  C   UNL     1      47.984  57.425  18.773  1.00  0.00    +0.313 C 
ATOM     15  O   UNL     1      47.581  57.754  19.880  1.00  0.00    -0.263 OA
ATOM     16  N   UNL     1      48.829  56.411  18.403  1.00  0.00    -0.314 N 
ATOM     17  H   UNL     1      48.935  56.265  17.395  1.00  0.00    +0.170 HD
BRANCH  16  18
ATOM     18  C   UNL     1      49.462  55.485  19.222  1.00  0.00    +0.101 A 
ATOM     19  C   UNL     1      50.193  55.604  20.449  1.00  0.00    +0.045 A 
ATOM     20  C   UNL     1      49.468  54.131  18.902  1.00  0.00    +0.216 A 
ATOM     21  C   UNL     1      50.609  56.633  21.319  1.00  0.00    +0.014 A 
ATOM     22  C   UNL     1      50.569  54.304  20.787  1.00  0.00    +0.137 A 
ATOM     23  O   UNL     1      50.134  53.417  19.856  1.00  0.00    -0.449 OA
ATOM     24  C   UNL     1      51.347  56.317  22.471  1.00  0.00    +0.001 A 
ATOM     25  C   UNL     1      51.297  53.957  21.924  1.00  0.00    +0.048 A 
ATOM     26  C   UNL     1      51.681  54.999  22.769  1.00  0.00    +0.004 A 
BRANCH  20  27
ATOM     27  C   UNL     1      48.876  53.424  17.781  1.00  0.00    +0.293 C 
ATOM     28  O   UNL     1      48.334  54.035  16.864  1.00  0.00    -0.265 OA
ATOM     29  N   UNL     1      48.997  52.049  17.878  1.00  0.00    -0.319 N 
ATOM     30  H   UNL     1      49.501  51.723  18.697  1.00  0.00    +0.170 HD
BRANCH  29  31
ATOM     31  C   UNL     1      48.543  51.071  16.974  1.00  0.00    +0.044 A 
ATOM     32  C   UNL     1      49.415  50.713  15.934  1.00  0.00    +0.026 A 
ATOM     33  C   UNL     1      47.299  50.446  17.057  1.00  0.00    +0.065 A 
ATOM     34  C   UNL     1      49.046  49.749  14.989  1.00  0.00    +0.005 A 
ATOM     35  C   UNL     1      46.943  49.486  16.113  1.00  0.00    +0.125 A 
ATOM     36  C   UNL     1      47.803  49.132  15.081  1.00  0.00    +0.039 A 
ATOM     37  F   UNL     1      45.747  48.887  16.207  1.00  0.00    -0.207 F 
ENDBRANCH  29  31
ENDBRANCH  20  27
ENDBRANCH  16  18
ENDBRANCH   2  14
TORSDOF 10
ENDMDL
MODEL 3
REMARK VINA RESULT:    -8.054      2.990      8.318
REMARK INTER + INTRA:         -14.588
REMARK INTER:                 -13.014
REMARK INTRA:                  -1.574
REMARK UNBOUND:                -1.827
REMARK SMILES CC[NH+](CC)CCCNC(=O)C(=O)Nc1c(C(=O)Nc2cccc(F)c2)oc2ccccc12
REMARK SMILES IDX 9 1 10 2 11 3 8 5 7 6 6 7 3 8 2 10 1 11 4 12 5 13 12 14
REMARK SMILES IDX 13 15 14 16 15 18 33 19 16 20 32 21 28 22 27 23 31 24 29 25
REMARK SMILES IDX 30 26 17 27 18 28 19 29 20 31 21 32 26 33 22 34 24 35 23 36
REMARK SMILES IDX 25 37
REMARK H PARENT 9 4 3 9 14 17 19 30
ROOT
ATOM      1  N   UNL     1      46.386  58.252  16.611  1.00  0.00    -0.348 N 
ATOM      2  C   UNL     1      47.613  57.627  16.499  1.00  0.00    +0.309 C 
ATOM      3  O   UNL     1      48.272  57.528  15.475  1.00  0.00    -0.264 OA
ATOM      4  H   UNL     1      46.078  58.372  17.577  1.00  0.00    +0.163 HD
ENDROOT
BRANCH   1   5
ATOM      5  C   UNL     1      45.814  59.078  15.570  1.00  0.00    +0.122 C 
BRANCH   5   6
ATOM      6  C   UNL     1      44.788  60.092  16.091  1.00  0.00    +0.083 C 
BRANCH   6   7
ATOM      7  C   UNL     1      45.423  61.193  16.935  1.00  0.00    +0.264 C 
BRANCH   7   8
ATOM      8  N   UNL     1      45.211  60.926  18.423  1.00  0.00    -0.335 N 
ATOM      9  H   UNL     1      44.772  60.001  18.519  1.00  0.00    +0.348 HD
BRANCH   8  10
ATOM     10  C   UNL     1      44.241  61.933  19.034  1.00  0.00    +0.258 C 
ATOM     11  C   UNL     1      45.009  63.112  19.609  1.00  0.00    +0.071 C 
ENDBRANCH   8  10
BRANCH   8  12
ATOM     12  C   UNL     1      46.524  60.880  19.189  1.00  0.00    +0.258 C 
ATOM     13  C   UNL     1      47.691  61.100  18.244  1.00  0.00    +0.071 C 
ENDBRANCH   8  12
ENDBRANCH   7   8
ENDBRANCH   6   7
ENDBRANCH   5   6
ENDBRANCH   1   5
BRANCH   2  14
ATOM     14  C   UNL     1      48.106  56.990  17.816  1.00  0.00    +0.313 C 
ATOM     15  O   UNL     1      47.755  57.514  18.863  1.00  0.00    -0.263 OA
ATOM     16  N   UNL     1      48.836  55.851  17.596  1.00  0.00    -0.314 N 
ATOM     17  H   UNL     1      48.913  55.551  16.620  1.00  0.00    +0.170 HD
BRANCH  16  18
ATOM     18  C   UNL     1      49.382  54.991  18.542  1.00  0.00    +0.101 A 
ATOM     19  C   UNL     1      50.111  55.209  19.756  1.00  0.00    +0.045 A 
ATOM     20  C   UNL     1      49.276  53.611  18.401  1.00  0.00    +0.216 A 
ATOM     21  C   UNL     1      50.606  56.306  20.492  1.00  0.00    +0.014 A 
ATOM     22  C   UNL     1      50.372  53.939  20.268  1.00  0.00    +0.137 A 
ATOM     23  O   UNL     1      49.871  52.976  19.452  1.00  0.00    -0.449 OA
ATOM     24  C   UNL     1      51.304  56.084  21.689  1.00  0.00    +0.001 A 
ATOM     25  C   UNL     1      51.058  53.684  21.455  1.00  0.00    +0.048 A 
ATOM     26  C   UNL     1      51.523  54.793  22.163  1.00  0.00    +0.004 A 
BRANCH  20  27
ATOM     27  C   UNL     1      48.635  52.815  17.371  1.00  0.00    +0.293 C 
ATOM     28  O   UNL     1      48.229  53.331  16.333  1.00  0.00    -0.265 OA
ATOM     29  N   UNL     1      48.547  51.472  17.695  1.00  0.00    -0.319 N 
ATOM     30  H   UNL     1      48.961  51.221  18.588  1.00  0.00    +0.170 HD
BRANCH  29  31
ATOM     31  C   UNL     1      47.993  50.428  16.930  1.00  0.00    +0.044 A 
ATOM     32  C   UNL     1      48.857  49.755  16.053  1.00  0.00    +0.026 A 
ATOM     33  C   UNL     1      46.658  50.031  17.000  1.00  0.00    +0.065 A 
ATOM     34  C   UNL     1      48.392  48.704  15.255  1.00  0.00    +0.005 A 
ATOM     35  C   UNL     1      46.206  48.982  16.203  1.00  0.00    +0.125 A 
ATOM     36  C   UNL     1      47.059  48.316  15.333  1.00  0.00    +0.039 A 
ATOM     37  F   UNL     1      44.922  48.604  16.284  1.00  0.00    -0.207 F 
ENDBRANCH  29  31
ENDBRANCH  20  27
ENDBRANCH  16  18
ENDBRANCH   2  14
TORSDOF 10
ENDMDL
MODEL 4
REMARK VINA RESULT:    -7.863      2.355      2.928
REMARK INTER + INTRA:         -14.286
REMARK INTER:                 -13.506
REMARK INTRA:                  -0.781
REMARK UNBOUND:                -1.827
REMARK SMILES CC[NH+](CC)CCCNC(=O)C(=O)Nc1c(C(=O)Nc2cccc(F)c2)oc2ccccc12
REMARK SMILES IDX 9 1 10 2 11 3 8 5 7 6 6 7 3 8 2 10 1 11 4 12 5 13 12 14
REMARK SMILES IDX 13 15 14 16 15 18 33 19 16 20 32 21 28 22 27 23 31 24 29 25
REMARK SMILES IDX 30 26 17 27 18 28 19 29 20 31 21 32 26 33 22 34 24 35 23 36
REMARK SMILES IDX 25 37
REMARK H PARENT 9 4 3 9 14 17 19 30
ROOT
ATOM      1  N   UNL     1      48.997  51.695  16.323  1.00  0.00    -0.348 N 
ATOM      2  C   UNL     1      48.514  52.887  16.830  1.00  0.00    +0.309 C 
ATOM      3  O   UNL     1      47.519  53.477  16.439  1.00  0.00    -0.264 OA
ATOM      4  H   UNL     1      49.740  51.284  16.890  1.00  0.00    +0.163 HD
ENDROOT
BRANCH   1   5
ATOM      5  C   UNL     1      48.255  50.861  15.403  1.00  0.00    +0.122 C 
BRANCH   5   6
ATOM      6  C   UNL     1      48.673  49.387  15.444  1.00  0.00    +0.083 C 
BRANCH   6   7
ATOM      7  C   UNL     1      47.578  48.448  14.947  1.00  0.00    +0.264 C 
BRANCH   7   8
ATOM      8  N   UNL     1      47.103  47.526  16.066  1.00  0.00    -0.335 N 
ATOM      9  H   UNL     1      47.653  46.658  16.015  1.00  0.00    +0.348 HD
BRANCH   8  10
ATOM     10  C   UNL     1      45.643  47.128  15.875  1.00  0.00    +0.258 C 
ATOM     11  C   UNL     1      45.089  47.773  14.616  1.00  0.00    +0.071 C 
ENDBRANCH   8  10
BRANCH   8  12
ATOM     12  C   UNL     1      47.342  48.125  17.443  1.00  0.00    +0.258 C 
ATOM     13  C   UNL     1      46.028  48.583  18.051  1.00  0.00    +0.071 C 
ENDBRANCH   8  12
ENDBRANCH   7   8
ENDBRANCH   6   7
ENDBRANCH   5   6
ENDBRANCH   1   5
BRANCH   2  14
ATOM     14  C   UNL     1      49.388  53.480  17.956  1.00  0.00    +0.313 C 
ATOM     15  O   UNL     1      50.489  52.980  18.139  1.00  0.00    -0.263 OA
ATOM     16  N   UNL     1      48.795  54.560  18.556  1.00  0.00    -0.314 N 
ATOM     17  H   UNL     1      47.900  54.857  18.156  1.00  0.00    +0.170 HD
BRANCH  16  18
ATOM     18  C   UNL     1      49.312  55.371  19.558  1.00  0.00    +0.101 A 
ATOM     19  C   UNL     1      50.165  55.114  20.680  1.00  0.00    +0.045 A 
ATOM     20  C   UNL     1      49.018  56.730  19.603  1.00  0.00    +0.216 A 
ATOM     21  C   UNL     1      50.807  54.006  21.270  1.00  0.00    +0.014 A 
ATOM     22  C   UNL     1      50.337  56.348  21.308  1.00  0.00    +0.137 A 
ATOM     23  O   UNL     1      49.646  57.321  20.660  1.00  0.00    -0.449 OA
ATOM     24  C   UNL     1      51.590  54.185  22.422  1.00  0.00    +0.001 A 
ATOM     25  C   UNL     1      51.111  56.560  22.448  1.00  0.00    +0.048 A 
ATOM     26  C   UNL     1      51.741  55.443  22.998  1.00  0.00    +0.004 A 
BRANCH  20  27
ATOM     27  C   UNL     1      48.210  57.550  18.718  1.00  0.00    +0.293 C 
ATOM     28  O   UNL     1      47.899  57.155  17.598  1.00  0.00    -0.265 OA
ATOM     29  N   UNL     1      47.857  58.768  19.274  1.00  0.00    -0.319 N 
ATOM     30  H   UNL     1      48.183  58.912  20.225  1.00  0.00    +0.170 HD
BRANCH  29  31
ATOM     31  C   UNL     1      47.083  59.793  18.699  1.00  0.00    +0.044 A 
ATOM     32  C   UNL     1      46.902  60.956  19.463  1.00  0.00    +0.026 A 
ATOM     33  C   UNL     1      46.502  59.719  17.433  1.00  0.00    +0.065 A 
ATOM     34  C   UNL     1      46.148  62.027  18.970  1.00  0.00    +0.005 A 
ATOM     35  C   UNL     1      45.756  60.791  16.952  1.00  0.00    +0.125 A 
ATOM     36  C   UNL     1      45.573  61.943  17.707  1.00  0.00    +0.039 A 
ATOM     37  F   UNL     1      45.208  60.711  15.731  1.00  0.00    -0.207 F 
ENDBRANCH  29  31
ENDBRANCH  20  27
ENDBRANCH  16  18
ENDBRANCH   2  14
TORSDOF 10
ENDMDL
MODEL 5
REMARK VINA RESULT:    -7.471      5.414      7.964
REMARK INTER + INTRA:         -13.665
REMARK INTER:                 -11.825
REMARK INTRA:                  -1.840
REMARK UNBOUND:                -1.827
REMARK SMILES CC[NH+](CC)CCCNC(=O)C(=O)Nc1c(C(=O)Nc2cccc(F)c2)oc2ccccc12
REMARK SMILES IDX 9 1 10 2 11 3 8 5 7 6 6 7 3 8 2 10 1 11 4 12 5 13 12 14
REMARK SMILES IDX 13 15 14 16 15 18 33 19 16 20 32 21 28 22 27 23 31 24 29 25
REMARK SMILES IDX 30 26 17 27 18 28 19 29 20 31 21 32 26 33 22 34 24 35 23 36
REMARK SMILES IDX 25 37
REMARK H PARENT 9 4 3 9 14 17 19 30
ROOT
ATOM      1  N   UNL     1      46.205  56.744  14.052  1.00  0.00    -0.348 N 
ATOM      2  C   UNL     1      47.532  56.859  14.422  1.00  0.00    +0.309 C 
ATOM      3  O   UNL     1      48.478  56.976  13.659  1.00  0.00    -0.264 OA
ATOM      4  H   UNL     1      45.557  56.821  14.836  1.00  0.00    +0.163 HD
ENDROOT
BRANCH   1   5
ATOM      5  C   UNL     1      45.731  56.975  12.705  1.00  0.00    +0.122 C 
BRANCH   5   6
ATOM      6  C   UNL     1      44.714  58.119  12.605  1.00  0.00    +0.083 C 
BRANCH   6   7
ATOM      7  C   UNL     1      45.242  59.430  13.178  1.00  0.00    +0.264 C 
BRANCH   7   8
ATOM      8  N   UNL     1      44.217  60.066  14.112  1.00  0.00    -0.335 N 
ATOM      9  H   UNL     1      44.654  60.171  15.037  1.00  0.00    +0.348 HD
BRANCH   8  10
ATOM     10  C   UNL     1      43.004  59.159  14.303  1.00  0.00    +0.258 C 
ATOM     11  C   UNL     1      42.808  58.857  15.779  1.00  0.00    +0.071 C 
ENDBRANCH   8  10
BRANCH   8  12
ATOM     12  C   UNL     1      43.806  61.456  13.652  1.00  0.00    +0.258 C 
ATOM     13  C   UNL     1      44.478  62.513  14.512  1.00  0.00    +0.071 C 
ENDBRANCH   8  12
ENDBRANCH   7   8
ENDBRANCH   6   7
ENDBRANCH   5   6
ENDBRANCH   1   5
BRANCH   2  14
ATOM     14  C   UNL     1      47.757  56.783  15.948  1.00  0.00    +0.313 C 
ATOM     15  O   UNL     1      48.157  55.722  16.407  1.00  0.00    -0.263 OA
ATOM     16  N   UNL     1      47.525  57.984  16.565  1.00  0.00    -0.314 N 
ATOM     17  H   UNL     1      47.291  58.766  15.946  1.00  0.00    +0.170 HD
BRANCH  16  18
ATOM     18  C   UNL     1      47.683  58.299  17.909  1.00  0.00    +0.101 A 
ATOM     19  C   UNL     1      48.280  57.605  19.011  1.00  0.00    +0.045 A 
ATOM     20  C   UNL     1      47.209  59.501  18.424  1.00  0.00    +0.216 A 
ATOM     21  C   UNL     1      48.909  56.364  19.245  1.00  0.00    +0.014 A 
ATOM     22  C   UNL     1      48.137  58.454  20.108  1.00  0.00    +0.137 A 
ATOM     23  O   UNL     1      47.492  59.595  19.756  1.00  0.00    -0.449 OA
ATOM     24  C   UNL     1      49.373  56.049  20.532  1.00  0.00    +0.001 A 
ATOM     25  C   UNL     1      48.590  58.173  21.397  1.00  0.00    +0.048 A 
ATOM     26  C   UNL     1      49.218  56.942  21.589  1.00  0.00    +0.004 A 
BRANCH  20  27
ATOM     27  C   UNL     1      46.527  60.604  17.771  1.00  0.00    +0.293 C 
ATOM     28  O   UNL     1      45.717  60.402  16.871  1.00  0.00    -0.265 OA
ATOM     29  N   UNL     1      46.892  61.843  18.269  1.00  0.00    -0.319 N 
ATOM     30  H   UNL     1      47.560  61.814  19.034  1.00  0.00    +0.170 HD
BRANCH  29  31
ATOM     31  C   UNL     1      46.428  63.110  17.871  1.00  0.00    +0.044 A 
ATOM     32  C   UNL     1      45.119  63.453  18.243  1.00  0.00    +0.026 A 
ATOM     33  C   UNL     1      47.186  64.028  17.144  1.00  0.00    +0.065 A 
ATOM     34  C   UNL     1      44.575  64.693  17.890  1.00  0.00    +0.005 A 
ATOM     35  C   UNL     1      46.636  65.260  16.801  1.00  0.00    +0.125 A 
ATOM     36  C   UNL     1      45.340  65.601  17.166  1.00  0.00    +0.039 A 
ATOM     37  F   UNL     1      47.376  66.138  16.108  1.00  0.00    -0.207 F 
ENDBRANCH  29  31
ENDBRANCH  20  27
ENDBRANCH  16  18
ENDBRANCH   2  14
TORSDOF 10
ENDMDL
