MODEL 1
REMARK VINA RESULT:    -9.670      0.000      0.000
REMARK INTER + INTRA:         -15.791
REMARK INTER:                 -15.041
REMARK INTRA:                  -0.750
REMARK UNBOUND:                -0.750
REMARK SMILES CCCN(C(=O)[C@@H]1CC(=O)N(Cc2ccc(C)cc2)C1)c1c(N)n(Cc2ccccc2)c(=O)[nH]c1=O
REMARK SMILES IDX 5 1 6 2 4 3 3 4 2 5 1 6 21 7 22 8 35 9 24 10 34 11 36 12
REMARK SMILES IDX 32 13 33 14 23 16 25 19 26 20 27 21 31 22 28 23 30 24 29 25
REMARK SMILES IDX 7 26 8 27 20 28 9 29 11 30 10 31 12 32 13 33 14 34 19 35
REMARK SMILES IDX 15 36 18 37 16 38 17 39
REMARK H PARENT 34 15 23 17 23 18
ROOT
ATOM      1  C   UNL     1      52.238  53.427  19.157  1.00  0.00    +0.232 C 
ATOM      2  O   UNL     1      53.472  53.353  19.169  1.00  0.00    -0.274 OA
ENDROOT
BRANCH   1   3
ATOM      3  N   UNL     1      51.433  52.279  19.251  1.00  0.00    -0.304 N 
BRANCH   3   4
ATOM      4  C   UNL     1      50.779  51.820  20.499  1.00  0.00    +0.126 C 
BRANCH   4   5
ATOM      5  C   UNL     1      51.365  50.499  21.020  1.00  0.00    +0.019 C 
ATOM      6  C   UNL     1      50.538  49.276  20.648  1.00  0.00    +0.006 C 
ENDBRANCH   4   5
ENDBRANCH   3   4
BRANCH   3   7
ATOM      7  C   UNL     1      51.034  51.647  18.050  1.00  0.00    +0.151 C 
ATOM      8  C   UNL     1      49.776  51.725  17.544  1.00  0.00    +0.137 C 
ATOM      9  C   UNL     1      52.026  50.778  17.342  1.00  0.00    +0.279 C 
ATOM     10  N   UNL     1      49.453  51.049  16.367  1.00  0.00    -0.274 N 
ATOM     11  N   UNL     1      51.647  50.290  16.134  1.00  0.00    -0.272 N 
ATOM     12  O   UNL     1      53.113  50.479  17.828  1.00  0.00    -0.267 OA
ATOM     13  C   UNL     1      50.373  50.292  15.656  1.00  0.00    +0.330 C 
ATOM     14  O   UNL     1      50.115  49.634  14.651  1.00  0.00    -0.248 OA
ATOM     15  H   UNL     1      52.291  49.669  15.669  1.00  0.00    +0.175 HD
BRANCH   8  16
ATOM     16  N   UNL     1      48.797  52.504  18.171  1.00  0.00    -0.383 N 
ATOM     17  H   UNL     1      48.321  53.035  17.435  1.00  0.00    +0.158 HD
ATOM     18  H   UNL     1      48.071  51.905  18.560  1.00  0.00    +0.158 HD
ENDBRANCH   8  16
BRANCH  10  19
ATOM     19  C   UNL     1      48.119  51.185  15.769  1.00  0.00    +0.164 C 
BRANCH  19  20
ATOM     20  C   UNL     1      47.190  50.043  16.136  1.00  0.00    -0.028 A 
ATOM     21  C   UNL     1      46.447  50.077  17.326  1.00  0.00    +0.005 A 
ATOM     22  C   UNL     1      47.042  48.940  15.281  1.00  0.00    +0.005 A 
ATOM     23  C   UNL     1      45.580  49.032  17.655  1.00  0.00    +0.000 A 
ATOM     24  C   UNL     1      46.179  47.895  15.614  1.00  0.00    +0.000 A 
ATOM     25  C   UNL     1      45.448  47.941  16.800  1.00  0.00    +0.000 A 
ENDBRANCH  19  20
ENDBRANCH  10  19
ENDBRANCH   3   7
ENDBRANCH   1   3
BRANCH   1  26
ATOM     26  C   UNL     1      51.571  54.792  19.057  1.00  0.00    +0.108 C 
ATOM     27  C   UNL     1      52.399  55.920  19.696  1.00  0.00    +0.115 C 
ATOM     28  C   UNL     1      50.268  54.825  19.840  1.00  0.00    +0.133 C 
ATOM     29  C   UNL     1      51.366  56.851  20.273  1.00  0.00    +0.223 C 
ATOM     30  N   UNL     1      50.158  56.184  20.297  1.00  0.00    -0.338 N 
ATOM     31  O   UNL     1      51.580  57.983  20.672  1.00  0.00    -0.275 OA
BRANCH  30  32
ATOM     32  C   UNL     1      48.945  56.718  20.890  1.00  0.00    +0.155 C 
BRANCH  32  33
ATOM     33  C   UNL     1      48.229  57.646  19.941  1.00  0.00    -0.029 A 
ATOM     34  C   UNL     1      48.110  57.341  18.579  1.00  0.00    +0.006 A 
ATOM     35  C   UNL     1      47.696  58.854  20.414  1.00  0.00    +0.006 A 
ATOM     36  C   UNL     1      47.469  58.227  17.708  1.00  0.00    +0.004 A 
ATOM     37  C   UNL     1      47.052  59.736  19.544  1.00  0.00    +0.004 A 
ATOM     38  C   UNL     1      46.924  59.425  18.185  1.00  0.00    -0.051 A 
ATOM     39  C   UNL     1      46.268  60.389  17.241  1.00  0.00    +0.044 C 
ENDBRANCH  32  33
ENDBRANCH  30  32
ENDBRANCH   1  26
TORSDOF 10
ENDMDL
MODEL 2
REMARK VINA RESULT:    -9.565      2.345      8.647
REMARK INTER + INTRA:         -15.627
REMARK INTER:                 -14.418
REMARK INTRA:                  -1.209
REMARK UNBOUND:                -0.750
REMARK SMILES CCCN(C(=O)[C@@H]1CC(=O)N(Cc2ccc(C)cc2)C1)c1c(N)n(Cc2ccccc2)c(=O)[nH]c1=O
REMARK SMILES IDX 5 1 6 2 4 3 3 4 2 5 1 6 21 7 22 8 35 9 24 10 34 11 36 12
REMARK SMILES IDX 32 13 33 14 23 16 25 19 26 20 27 21 31 22 28 23 30 24 29 25
REMARK SMILES IDX 7 26 8 27 20 28 9 29 11 30 10 31 12 32 13 33 14 34 19 35
REMARK SMILES IDX 15 36 18 37 16 38 17 39
REMARK H PARENT 34 15 23 17 23 18
ROOT
ATOM      1  C   UNL     1      49.746  51.068  17.925  1.00  0.00    +0.232 C 
ATOM      2  O   UNL     1      49.512  51.868  17.013  1.00  0.00    -0.274 OA
ENDROOT
BRANCH   1   3
ATOM      3  N   UNL     1      50.978  51.064  18.599  1.00  0.00    -0.304 N 
BRANCH   3   4
ATOM      4  C   UNL     1      52.212  50.430  18.077  1.00  0.00    +0.126 C 
BRANCH   4   5
ATOM      5  C   UNL     1      52.709  51.084  16.780  1.00  0.00    +0.019 C 
ATOM      6  C   UNL     1      53.132  50.083  15.714  1.00  0.00    +0.006 C 
ENDBRANCH   4   5
ENDBRANCH   3   4
BRANCH   3   7
ATOM      7  C   UNL     1      51.119  51.899  19.732  1.00  0.00    +0.151 C 
ATOM      8  C   UNL     1      51.395  53.227  19.655  1.00  0.00    +0.137 C 
ATOM      9  C   UNL     1      51.043  51.272  21.090  1.00  0.00    +0.279 C 
ATOM     10  N   UNL     1      51.546  53.977  20.821  1.00  0.00    -0.274 N 
ATOM     11  N   UNL     1      51.060  52.121  22.148  1.00  0.00    -0.272 N 
ATOM     12  O   UNL     1      51.007  50.056  21.259  1.00  0.00    -0.267 OA
ATOM     13  C   UNL     1      51.413  53.434  22.090  1.00  0.00    +0.330 C 
ATOM     14  O   UNL     1      51.598  54.046  23.140  1.00  0.00    -0.248 OA
ATOM     15  H   UNL     1      51.051  51.706  23.067  1.00  0.00    +0.175 HD
BRANCH   8  16
ATOM     16  N   UNL     1      51.500  53.866  18.415  1.00  0.00    -0.383 N 
ATOM     17  H   UNL     1      50.615  54.360  18.258  1.00  0.00    +0.158 HD
ATOM     18  H   UNL     1      52.197  54.607  18.463  1.00  0.00    +0.158 HD
ENDBRANCH   8  16
BRANCH  10  19
ATOM     19  C   UNL     1      51.770  55.427  20.752  1.00  0.00    +0.164 C 
BRANCH  19  20
ATOM     20  C   UNL     1      50.486  56.227  20.871  1.00  0.00    -0.028 A 
ATOM     21  C   UNL     1      49.353  55.880  20.120  1.00  0.00    +0.005 A 
ATOM     22  C   UNL     1      50.404  57.319  21.749  1.00  0.00    +0.005 A 
ATOM     23  C   UNL     1      48.167  56.608  20.243  1.00  0.00    +0.000 A 
ATOM     24  C   UNL     1      49.219  58.048  21.866  1.00  0.00    +0.000 A 
ATOM     25  C   UNL     1      48.101  57.692  21.114  1.00  0.00    +0.000 A 
ENDBRANCH  19  20
ENDBRANCH  10  19
ENDBRANCH   3   7
ENDBRANCH   1   3
BRANCH   1  26
ATOM     26  C   UNL     1      48.670  50.075  18.345  1.00  0.00    +0.108 C 
ATOM     27  C   UNL     1      48.999  48.624  17.953  1.00  0.00    +0.115 C 
ATOM     28  C   UNL     1      47.360  50.346  17.623  1.00  0.00    +0.133 C 
ATOM     29  C   UNL     1      47.658  48.021  17.625  1.00  0.00    +0.223 C 
ATOM     30  N   UNL     1      46.751  49.051  17.485  1.00  0.00    -0.338 N 
ATOM     31  O   UNL     1      47.436  46.830  17.484  1.00  0.00    -0.275 OA
BRANCH  30  32
ATOM     32  C   UNL     1      45.375  48.871  17.058  1.00  0.00    +0.155 C 
BRANCH  32  33
ATOM     33  C   UNL     1      45.297  48.189  15.716  1.00  0.00    -0.029 A 
ATOM     34  C   UNL     1      46.107  48.595  14.647  1.00  0.00    +0.006 A 
ATOM     35  C   UNL     1      44.379  47.149  15.513  1.00  0.00    +0.006 A 
ATOM     36  C   UNL     1      46.001  47.971  13.401  1.00  0.00    +0.004 A 
ATOM     37  C   UNL     1      44.277  46.523  14.268  1.00  0.00    +0.004 A 
ATOM     38  C   UNL     1      45.095  46.923  13.204  1.00  0.00    -0.051 A 
ATOM     39  C   UNL     1      44.959  46.280  11.856  1.00  0.00    +0.044 C 
ENDBRANCH  32  33
ENDBRANCH  30  32
ENDBRANCH   1  26
TORSDOF 10
ENDMDL
MODEL 3
REMARK VINA RESULT:    -9.462      1.985      8.176
REMARK INTER + INTRA:         -15.468
REMARK INTER:                 -15.285
REMARK INTRA:                  -0.183
REMARK UNBOUND:                -0.750
REMARK SMILES CCCN(C(=O)[C@@H]1CC(=O)N(Cc2ccc(C)cc2)C1)c1c(N)n(Cc2ccccc2)c(=O)[nH]c1=O
REMARK SMILES IDX 5 1 6 2 4 3 3 4 2 5 1 6 21 7 22 8 35 9 24 10 34 11 36 12
REMARK SMILES IDX 32 13 33 14 23 16 25 19 26 20 27 21 31 22 28 23 30 24 29 25
REMARK SMILES IDX 7 26 8 27 20 28 9 29 11 30 10 31 12 32 13 33 14 34 19 35
REMARK SMILES IDX 15 36 18 37 16 38 17 39
REMARK H PARENT 34 15 23 17 23 18
ROOT
ATOM      1  C   UNL     1      51.389  53.304  21.411  1.00  0.00    +0.232 C 
ATOM      2  O   UNL     1      52.035  53.273  22.464  1.00  0.00    -0.274 OA
ENDROOT
BRANCH   1   3
ATOM      3  N   UNL     1      51.393  54.436  20.580  1.00  0.00    -0.304 N 
BRANCH   3   4
ATOM      4  C   UNL     1      51.872  54.441  19.178  1.00  0.00    +0.126 C 
BRANCH   4   5
ATOM      5  C   UNL     1      53.237  53.756  19.019  1.00  0.00    +0.019 C 
ATOM      6  C   UNL     1      53.220  52.576  18.057  1.00  0.00    +0.006 C 
ENDBRANCH   4   5
ENDBRANCH   3   4
BRANCH   3   7
ATOM      7  C   UNL     1      50.695  55.585  21.021  1.00  0.00    +0.151 C 
ATOM      8  C   UNL     1      49.435  55.897  20.621  1.00  0.00    +0.137 C 
ATOM      9  C   UNL     1      51.412  56.554  21.909  1.00  0.00    +0.279 C 
ATOM     10  N   UNL     1      48.825  57.065  21.079  1.00  0.00    -0.274 N 
ATOM     11  N   UNL     1      50.673  57.576  22.408  1.00  0.00    -0.272 N 
ATOM     12  O   UNL     1      52.613  56.468  22.153  1.00  0.00    -0.267 OA
ATOM     13  C   UNL     1      49.443  57.943  21.957  1.00  0.00    +0.330 C 
ATOM     14  O   UNL     1      48.965  59.011  22.336  1.00  0.00    -0.248 OA
ATOM     15  H   UNL     1      51.157  58.258  22.973  1.00  0.00    +0.175 HD
BRANCH   8  16
ATOM     16  N   UNL     1      48.720  55.043  19.774  1.00  0.00    -0.383 N 
ATOM     17  H   UNL     1      48.736  54.113  20.205  1.00  0.00    +0.158 HD
ATOM     18  H   UNL     1      47.735  55.302  19.768  1.00  0.00    +0.158 HD
ENDBRANCH   8  16
BRANCH  10  19
ATOM     19  C   UNL     1      47.436  57.375  20.715  1.00  0.00    +0.164 C 
BRANCH  19  20
ATOM     20  C   UNL     1      47.336  58.389  19.590  1.00  0.00    -0.028 A 
ATOM     21  C   UNL     1      47.555  58.007  18.258  1.00  0.00    +0.005 A 
ATOM     22  C   UNL     1      47.002  59.725  19.862  1.00  0.00    +0.005 A 
ATOM     23  C   UNL     1      47.446  58.938  17.223  1.00  0.00    +0.000 A 
ATOM     24  C   UNL     1      46.898  60.655  18.826  1.00  0.00    +0.000 A 
ATOM     25  C   UNL     1      47.120  60.262  17.507  1.00  0.00    +0.000 A 
ENDBRANCH  19  20
ENDBRANCH  10  19
ENDBRANCH   3   7
ENDBRANCH   1   3
BRANCH   1  26
ATOM     26  C   UNL     1      50.586  52.080  20.989  1.00  0.00    +0.108 C 
ATOM     27  C   UNL     1      51.349  50.758  21.180  1.00  0.00    +0.115 C 
ATOM     28  C   UNL     1      50.291  52.104  19.498  1.00  0.00    +0.133 C 
ATOM     29  C   UNL     1      50.889  49.901  20.031  1.00  0.00    +0.223 C 
ATOM     30  N   UNL     1      50.257  50.718  19.117  1.00  0.00    -0.338 N 
ATOM     31  O   UNL     1      51.075  48.700  19.928  1.00  0.00    -0.275 OA
BRANCH  30  32
ATOM     32  C   UNL     1      49.775  50.271  17.822  1.00  0.00    +0.155 C 
BRANCH  32  33
ATOM     33  C   UNL     1      48.379  49.711  17.915  1.00  0.00    -0.029 A 
ATOM     34  C   UNL     1      48.071  48.673  18.806  1.00  0.00    +0.006 A 
ATOM     35  C   UNL     1      47.369  50.206  17.078  1.00  0.00    +0.006 A 
ATOM     36  C   UNL     1      46.778  48.145  18.858  1.00  0.00    +0.004 A 
ATOM     37  C   UNL     1      46.077  49.680  17.134  1.00  0.00    +0.004 A 
ATOM     38  C   UNL     1      45.768  48.652  18.032  1.00  0.00    -0.051 A 
ATOM     39  C   UNL     1      44.390  48.059  18.066  1.00  0.00    +0.044 C 
ENDBRANCH  32  33
ENDBRANCH  30  32
ENDBRANCH   1  26
TORSDOF 10
ENDMDL
MODEL 4
REMARK VINA RESULT:    -9.317      2.053      3.248
REMARK INTER + INTRA:         -15.241
REMARK INTER:                 -15.353
REMARK INTRA:                   0.111
REMARK UNBOUND:                -0.750
REMARK SMILES CCCN(C(=O)[C@@H]1CC(=O)N(Cc2ccc(C)cc2)C1)c1c(N)n(Cc2ccccc2)c(=O)[nH]c1=O
REMARK SMILES IDX 5 1 6 2 4 3 3 4 2 5 1 6 21 7 22 8 35 9 24 10 34 11 36 12
REMARK SMILES IDX 32 13 33 14 23 16 25 19 26 20 27 21 31 22 28 23 30 24 29 25
REMARK SMILES IDX 7 26 8 27 20 28 9 29 11 30 10 31 12 32 13 33 14 34 19 35
REMARK SMILES IDX 15 36 18 37 16 38 17 39
REMARK H PARENT 34 15 23 17 23 18
ROOT
ATOM      1  C   UNL     1      51.752  51.784  18.440  1.00  0.00    +0.232 C 
ATOM      2  O   UNL     1      52.460  51.343  17.528  1.00  0.00    -0.274 OA
ENDROOT
BRANCH   1   3
ATOM      3  N   UNL     1      50.368  51.545  18.476  1.00  0.00    -0.304 N 
BRANCH   3   4
ATOM      4  C   UNL     1      49.347  52.592  18.719  1.00  0.00    +0.126 C 
BRANCH   4   5
ATOM      5  C   UNL     1      49.327  53.662  17.618  1.00  0.00    +0.019 C 
ATOM      6  C   UNL     1      47.982  53.790  16.916  1.00  0.00    +0.006 C 
ENDBRANCH   4   5
ENDBRANCH   3   4
BRANCH   3   7
ATOM      7  C   UNL     1      49.899  50.285  18.037  1.00  0.00    +0.151 C 
ATOM      8  C   UNL     1      49.398  50.063  16.794  1.00  0.00    +0.137 C 
ATOM      9  C   UNL     1      49.876  49.154  19.018  1.00  0.00    +0.279 C 
ATOM     10  N   UNL     1      48.930  48.796  16.446  1.00  0.00    -0.274 N 
ATOM     11  N   UNL     1      49.537  47.936  18.528  1.00  0.00    -0.272 N 
ATOM     12  O   UNL     1      50.109  49.308  20.214  1.00  0.00    -0.267 OA
ATOM     13  C   UNL     1      48.960  47.715  17.315  1.00  0.00    +0.330 C 
ATOM     14  O   UNL     1      48.503  46.601  17.068  1.00  0.00    -0.248 OA
ATOM     15  H   UNL     1      49.477  47.176  19.189  1.00  0.00    +0.175 HD
BRANCH   8  16
ATOM     16  N   UNL     1      49.372  51.084  15.838  1.00  0.00    -0.383 N 
ATOM     17  H   UNL     1      49.060  51.934  16.320  1.00  0.00    +0.158 HD
ATOM     18  H   UNL     1      50.319  51.301  15.533  1.00  0.00    +0.158 HD
ENDBRANCH   8  16
BRANCH  10  19
ATOM     19  C   UNL     1      48.455  48.524  15.083  1.00  0.00    +0.164 C 
BRANCH  19  20
ATOM     20  C   UNL     1      46.960  48.271  15.019  1.00  0.00    -0.028 A 
ATOM     21  C   UNL     1      46.160  48.412  16.163  1.00  0.00    +0.005 A 
ATOM     22  C   UNL     1      46.348  47.908  13.810  1.00  0.00    +0.005 A 
ATOM     23  C   UNL     1      44.782  48.195  16.099  1.00  0.00    +0.000 A 
ATOM     24  C   UNL     1      44.971  47.686  13.749  1.00  0.00    +0.000 A 
ATOM     25  C   UNL     1      44.188  47.830  14.893  1.00  0.00    +0.000 A 
ENDBRANCH  19  20
ENDBRANCH  10  19
ENDBRANCH   3   7
ENDBRANCH   1   3
BRANCH   1  26
ATOM     26  C   UNL     1      52.392  52.589  19.563  1.00  0.00    +0.108 C 
ATOM     27  C   UNL     1      51.755  52.325  20.938  1.00  0.00    +0.115 C 
ATOM     28  C   UNL     1      52.182  54.081  19.358  1.00  0.00    +0.133 C 
ATOM     29  C   UNL     1      51.827  53.657  21.637  1.00  0.00    +0.223 C 
ATOM     30  N   UNL     1      52.111  54.619  20.690  1.00  0.00    -0.338 N 
ATOM     31  O   UNL     1      51.637  53.840  22.827  1.00  0.00    -0.275 OA
BRANCH  30  32
ATOM     32  C   UNL     1      52.149  56.045  20.964  1.00  0.00    +0.155 C 
BRANCH  32  33
ATOM     33  C   UNL     1      50.775  56.659  20.882  1.00  0.00    -0.029 A 
ATOM     34  C   UNL     1      50.322  57.558  21.857  1.00  0.00    +0.006 A 
ATOM     35  C   UNL     1      49.914  56.308  19.833  1.00  0.00    +0.006 A 
ATOM     36  C   UNL     1      49.034  58.096  21.782  1.00  0.00    +0.004 A 
ATOM     37  C   UNL     1      48.628  56.849  19.756  1.00  0.00    +0.004 A 
ATOM     38  C   UNL     1      48.181  57.755  20.725  1.00  0.00    -0.051 A 
ATOM     39  C   UNL     1      46.787  58.307  20.667  1.00  0.00    +0.044 C 
ENDBRANCH  32  33
ENDBRANCH  30  32
ENDBRANCH   1  26
TORSDOF 10
ENDMDL
MODEL 5
REMARK VINA RESULT:    -9.175      2.529      4.171
REMARK INTER + INTRA:         -15.021
REMARK INTER:                 -14.568
REMARK INTRA:                  -0.453
REMARK UNBOUND:                -0.750
REMARK SMILES CCCN(C(=O)[C@@H]1CC(=O)N(Cc2ccc(C)cc2)C1)c1c(N)n(Cc2ccccc2)c(=O)[nH]c1=O
REMARK SMILES IDX 5 1 6 2 4 3 3 4 2 5 1 6 21 7 22 8 35 9 24 10 34 11 36 12
REMARK SMILES IDX 32 13 33 14 23 16 25 19 26 20 27 21 31 22 28 23 30 24 29 25
REMARK SMILES IDX 7 26 8 27 20 28 9 29 11 30 10 31 12 32 13 33 14 34 19 35
REMARK SMILES IDX 15 36 18 37 16 38 17 39
REMARK H PARENT 34 15 23 17 23 18
ROOT
ATOM      1  C   UNL     1      49.219  55.180  19.879  1.00  0.00    +0.232 C 
ATOM      2  O   UNL     1      48.219  54.550  20.237  1.00  0.00    -0.274 OA
ENDROOT
BRANCH   1   3
ATOM      3  N   UNL     1      50.447  54.538  19.645  1.00  0.00    -0.304 N 
BRANCH   3   4
ATOM      4  C   UNL     1      51.741  55.244  19.488  1.00  0.00    +0.126 C 
BRANCH   4   5
ATOM      5  C   UNL     1      52.159  55.999  20.759  1.00  0.00    +0.019 C 
ATOM      6  C   UNL     1      53.155  57.121  20.502  1.00  0.00    +0.006 C 
ENDBRANCH   4   5
ENDBRANCH   3   4
BRANCH   3   7
ATOM      7  C   UNL     1      50.499  53.132  19.788  1.00  0.00    +0.151 C 
ATOM      8  C   UNL     1      50.118  52.264  18.814  1.00  0.00    +0.137 C 
ATOM      9  C   UNL     1      50.917  52.568  21.110  1.00  0.00    +0.279 C 
ATOM     10  N   UNL     1      50.174  50.889  19.043  1.00  0.00    -0.274 N 
ATOM     11  N   UNL     1      51.073  51.222  21.170  1.00  0.00    -0.272 N 
ATOM     12  O   UNL     1      51.078  53.265  22.109  1.00  0.00    -0.267 OA
ATOM     13  C   UNL     1      50.622  50.341  20.236  1.00  0.00    +0.330 C 
ATOM     14  O   UNL     1      50.629  49.140  20.499  1.00  0.00    -0.248 OA
ATOM     15  H   UNL     1      51.314  50.828  22.067  1.00  0.00    +0.175 HD
BRANCH   8  16
ATOM     16  N   UNL     1      49.696  52.730  17.564  1.00  0.00    -0.383 N 
ATOM     17  H   UNL     1      48.952  53.414  17.737  1.00  0.00    +0.158 HD
ATOM     18  H   UNL     1      50.439  53.270  17.125  1.00  0.00    +0.158 HD
ENDBRANCH   8  16
BRANCH  10  19
ATOM     19  C   UNL     1      49.836  49.940  17.975  1.00  0.00    +0.164 C 
BRANCH  19  20
ATOM     20  C   UNL     1      48.363  49.577  17.954  1.00  0.00    -0.028 A 
ATOM     21  C   UNL     1      47.462  50.280  17.139  1.00  0.00    +0.005 A 
ATOM     22  C   UNL     1      47.877  48.518  18.736  1.00  0.00    +0.005 A 
ATOM     23  C   UNL     1      46.110  49.933  17.108  1.00  0.00    +0.000 A 
ATOM     24  C   UNL     1      46.524  48.177  18.708  1.00  0.00    +0.000 A 
ATOM     25  C   UNL     1      45.641  48.884  17.894  1.00  0.00    +0.000 A 
ENDBRANCH  19  20
ENDBRANCH  10  19
ENDBRANCH   3   7
ENDBRANCH   1   3
BRANCH   1  26
ATOM     26  C   UNL     1      49.121  56.686  19.668  1.00  0.00    +0.108 C 
ATOM     27  C   UNL     1      48.081  57.359  20.581  1.00  0.00    +0.115 C 
ATOM     28  C   UNL     1      48.625  57.013  18.269  1.00  0.00    +0.133 C 
ATOM     29  C   UNL     1      47.514  58.468  19.734  1.00  0.00    +0.223 C 
ATOM     30  N   UNL     1      47.889  58.238  18.427  1.00  0.00    -0.338 N 
ATOM     31  O   UNL     1      46.824  59.385  20.144  1.00  0.00    -0.275 OA
BRANCH  30  32
ATOM     32  C   UNL     1      47.437  59.034  17.299  1.00  0.00    +0.155 C 
BRANCH  32  33
ATOM     33  C   UNL     1      46.701  58.192  16.289  1.00  0.00    -0.029 A 
ATOM     34  C   UNL     1      47.304  57.073  15.699  1.00  0.00    +0.006 A 
ATOM     35  C   UNL     1      45.400  58.544  15.900  1.00  0.00    +0.006 A 
ATOM     36  C   UNL     1      46.617  56.321  14.741  1.00  0.00    +0.004 A 
ATOM     37  C   UNL     1      44.714  57.790  14.946  1.00  0.00    +0.004 A 
ATOM     38  C   UNL     1      45.313  56.665  14.366  1.00  0.00    -0.051 A 
ATOM     39  C   UNL     1      44.593  55.876  13.312  1.00  0.00    +0.044 C 
ENDBRANCH  32  33
ENDBRANCH  30  32
ENDBRANCH   1  26
TORSDOF 10
ENDMDL
