MODEL 1
REMARK VINA RESULT:    -9.085      0.000      0.000
REMARK INTER + INTRA:         -13.325
REMARK INTER:                 -12.802
REMARK INTRA:                  -0.522
REMARK UNBOUND:                -0.522
REMARK SMILES COc1ccccc1/C=C/C(=O)NC(=S)NNC(=O)COc1ccc(Br)cc1C
REMARK SMILES IDX 16 1 14 2 15 3 13 4 11 5 12 6 17 9 18 10 19 11 20 13 21 14
REMARK SMILES IDX 22 15 28 16 27 17 25 18 23 19 24 20 29 21 26 22 10 23 9 24
REMARK SMILES IDX 8 25 7 26 3 27 6 28 4 29 5 30 2 31 1 32
REMARK H PARENT 16 7 13 8 17 12
ROOT
ATOM      1  N   UNL     1      49.585  50.891  17.538  1.00  0.00    -0.274 N 
ATOM      2  C   UNL     1      50.760  51.444  18.055  1.00  0.00    +0.192 C 
ATOM      3  S   UNL     1      52.123  50.527  18.391  1.00  0.00    -0.039 S 
ATOM      4  N   UNL     1      50.599  52.810  18.282  1.00  0.00    -0.298 N 
ATOM      5  C   UNL     1      51.521  53.736  18.748  1.00  0.00    +0.250 C 
ATOM      6  O   UNL     1      52.738  53.669  18.654  1.00  0.00    -0.270 OA
ATOM      7  H   UNL     1      48.950  51.495  17.010  1.00  0.00    +0.190 HD
ATOM      8  H   UNL     1      49.641  53.125  18.260  1.00  0.00    +0.172 HD
ENDROOT
BRANCH   1   9
ATOM      9  N   UNL     1      49.587  49.560  17.059  1.00  0.00    -0.265 N 
ATOM     10  C   UNL     1      48.757  48.666  17.720  1.00  0.00    +0.276 C 
ATOM     11  O   UNL     1      48.210  48.956  18.783  1.00  0.00    -0.269 OA
ATOM     12  H   UNL     1      49.776  49.455  16.062  1.00  0.00    +0.191 HD
BRANCH  10  13
ATOM     13  C   UNL     1      48.626  47.320  17.003  1.00  0.00    +0.331 C 
BRANCH  13  14
ATOM     14  O   UNL     1      47.306  46.947  16.644  1.00  0.00    -0.483 OA
BRANCH  14  15
ATOM     15  C   UNL     1      46.795  47.434  15.470  1.00  0.00    +0.123 A 
ATOM     16  C   UNL     1      45.640  46.787  14.994  1.00  0.00    -0.008 A 
ATOM     17  C   UNL     1      45.047  47.218  13.796  1.00  0.00    +0.023 A 
ATOM     18  C   UNL     1      45.608  48.272  13.078  1.00  0.00    +0.018 A 
ATOM     19  C   UNL     1      47.355  48.480  14.730  1.00  0.00    +0.048 A 
ATOM     20  C   UNL     1      46.760  48.902  13.537  1.00  0.00    +0.019 A 
ATOM     21  C   UNL     1      45.028  45.644  15.757  1.00  0.00    +0.048 C 
ATOM     22 Br   UNL     1      44.805  48.844  11.465  1.00  0.00    -0.051 Br
ENDBRANCH  14  15
ENDBRANCH  13  14
ENDBRANCH  10  13
ENDBRANCH   1   9
BRANCH   5  23
ATOM     23  C   UNL     1      50.905  54.995  19.241  1.00  0.00    +0.072 C 
ATOM     24  C   UNL     1      50.016  55.023  20.246  1.00  0.00    +0.017 C 
BRANCH  24  25
ATOM     25  C   UNL     1      49.388  56.262  20.736  1.00  0.00    +0.017 A 
ATOM     26  C   UNL     1      48.165  56.696  20.200  1.00  0.00    +0.012 A 
ATOM     27  C   UNL     1      50.035  57.048  21.714  1.00  0.00    +0.126 A 
ATOM     28  C   UNL     1      47.579  57.882  20.642  1.00  0.00    +0.001 A 
ATOM     29  C   UNL     1      49.434  58.235  22.150  1.00  0.00    +0.047 A 
ATOM     30  C   UNL     1      48.210  58.647  21.617  1.00  0.00    +0.004 A 
BRANCH  27  31
ATOM     31  O   UNL     1      51.234  56.566  22.183  1.00  0.00    -0.496 OA
ATOM     32  C   UNL     1      52.410  57.281  21.826  1.00  0.00    +0.278 C 
ENDBRANCH  27  31
ENDBRANCH  24  25
ENDBRANCH   5  23
TORSDOF 7
ENDMDL
MODEL 2
REMARK VINA RESULT:    -9.015      4.027      5.613
REMARK INTER + INTRA:         -13.226
REMARK INTER:                 -12.489
REMARK INTRA:                  -0.738
REMARK UNBOUND:                -0.522
REMARK SMILES COc1ccccc1/C=C/C(=O)NC(=S)NNC(=O)COc1ccc(Br)cc1C
REMARK SMILES IDX 16 1 14 2 15 3 13 4 11 5 12 6 17 9 18 10 19 11 20 13 21 14
REMARK SMILES IDX 22 15 28 16 27 17 25 18 23 19 24 20 29 21 26 22 10 23 9 24
REMARK SMILES IDX 8 25 7 26 3 27 6 28 4 29 5 30 2 31 1 32
REMARK H PARENT 16 7 13 8 17 12
ROOT
ATOM      1  N   UNL     1      48.530  54.834  17.873  1.00  0.00    -0.274 N 
ATOM      2  C   UNL     1      48.979  55.424  19.058  1.00  0.00    +0.192 C 
ATOM      3  S   UNL     1      49.761  54.560  20.263  1.00  0.00    -0.039 S 
ATOM      4  N   UNL     1      48.635  56.776  19.092  1.00  0.00    -0.298 N 
ATOM      5  C   UNL     1      48.920  57.729  20.058  1.00  0.00    +0.250 C 
ATOM      6  O   UNL     1      49.856  57.718  20.844  1.00  0.00    -0.270 OA
ATOM      7  H   UNL     1      48.417  55.423  17.044  1.00  0.00    +0.190 HD
ATOM      8  H   UNL     1      47.952  57.048  18.401  1.00  0.00    +0.172 HD
ENDROOT
BRANCH   1   9
ATOM      9  N   UNL     1      48.934  53.518  17.549  1.00  0.00    -0.265 N 
ATOM     10  C   UNL     1      48.203  52.875  16.559  1.00  0.00    +0.276 C 
ATOM     11  O   UNL     1      47.144  53.335  16.136  1.00  0.00    -0.269 OA
ATOM     12  H   UNL     1      49.928  53.324  17.670  1.00  0.00    +0.191 HD
BRANCH  10  13
ATOM     13  C   UNL     1      48.841  51.564  16.093  1.00  0.00    +0.331 C 
BRANCH  13  14
ATOM     14  O   UNL     1      49.078  50.606  17.111  1.00  0.00    -0.483 OA
BRANCH  14  15
ATOM     15  C   UNL     1      48.020  49.854  17.548  1.00  0.00    +0.123 A 
ATOM     16  C   UNL     1      48.268  49.052  18.678  1.00  0.00    -0.008 A 
ATOM     17  C   UNL     1      47.242  48.246  19.195  1.00  0.00    +0.023 A 
ATOM     18  C   UNL     1      45.989  48.232  18.586  1.00  0.00    +0.018 A 
ATOM     19  C   UNL     1      46.762  49.817  16.938  1.00  0.00    +0.048 A 
ATOM     20  C   UNL     1      45.746  49.010  17.459  1.00  0.00    +0.019 A 
ATOM     21  C   UNL     1      49.618  49.054  19.341  1.00  0.00    +0.048 C 
ATOM     22 Br   UNL     1      44.613  47.142  19.287  1.00  0.00    -0.051 Br
ENDBRANCH  14  15
ENDBRANCH  13  14
ENDBRANCH  10  13
ENDBRANCH   1   9
BRANCH   5  23
ATOM     23  C   UNL     1      48.072  58.945  19.965  1.00  0.00    +0.072 C 
ATOM     24  C   UNL     1      47.573  59.395  18.804  1.00  0.00    +0.017 C 
BRANCH  24  25
ATOM     25  C   UNL     1      46.742  60.607  18.694  1.00  0.00    +0.017 A 
ATOM     26  C   UNL     1      46.855  61.630  19.648  1.00  0.00    +0.012 A 
ATOM     27  C   UNL     1      45.791  60.725  17.657  1.00  0.00    +0.126 A 
ATOM     28  C   UNL     1      46.052  62.769  19.564  1.00  0.00    +0.001 A 
ATOM     29  C   UNL     1      44.994  61.874  17.584  1.00  0.00    +0.047 A 
ATOM     30  C   UNL     1      45.127  62.890  18.533  1.00  0.00    +0.004 A 
BRANCH  27  31
ATOM     31  O   UNL     1      45.730  59.678  16.769  1.00  0.00    -0.496 OA
ATOM     32  C   UNL     1      45.192  59.947  15.480  1.00  0.00    +0.278 C 
ENDBRANCH  27  31
ENDBRANCH  24  25
ENDBRANCH   5  23
TORSDOF 7
ENDMDL
MODEL 3
REMARK VINA RESULT:    -8.878      1.709      2.607
REMARK INTER + INTRA:         -13.033
REMARK INTER:                 -12.151
REMARK INTRA:                  -0.883
REMARK UNBOUND:                -0.522
REMARK SMILES COc1ccccc1/C=C/C(=O)NC(=S)NNC(=O)COc1ccc(Br)cc1C
REMARK SMILES IDX 16 1 14 2 15 3 13 4 11 5 12 6 17 9 18 10 19 11 20 13 21 14
REMARK SMILES IDX 22 15 28 16 27 17 25 18 23 19 24 20 29 21 26 22 10 23 9 24
REMARK SMILES IDX 8 25 7 26 3 27 6 28 4 29 5 30 2 31 1 32
REMARK H PARENT 16 7 13 8 17 12
ROOT
ATOM      1  N   UNL     1      49.675  50.887  17.985  1.00  0.00    -0.274 N 
ATOM      2  C   UNL     1      50.832  51.547  18.411  1.00  0.00    +0.192 C 
ATOM      3  S   UNL     1      52.250  50.738  18.790  1.00  0.00    -0.039 S 
ATOM      4  N   UNL     1      50.602  52.919  18.514  1.00  0.00    -0.298 N 
ATOM      5  C   UNL     1      51.484  53.931  18.862  1.00  0.00    +0.250 C 
ATOM      6  O   UNL     1      52.700  53.918  18.737  1.00  0.00    -0.270 OA
ATOM      7  H   UNL     1      48.995  51.404  17.422  1.00  0.00    +0.190 HD
ATOM      8  H   UNL     1      49.628  53.180  18.492  1.00  0.00    +0.172 HD
ENDROOT
BRANCH   1   9
ATOM      9  N   UNL     1      49.737  49.518  17.634  1.00  0.00    -0.265 N 
ATOM     10  C   UNL     1      48.658  48.734  18.015  1.00  0.00    +0.276 C 
ATOM     11  O   UNL     1      47.798  49.151  18.789  1.00  0.00    -0.269 OA
ATOM     12  H   UNL     1      50.257  49.310  16.781  1.00  0.00    +0.191 HD
BRANCH  10  13
ATOM     13  C   UNL     1      48.679  47.335  17.396  1.00  0.00    +0.331 C 
BRANCH  13  14
ATOM     14  O   UNL     1      48.429  47.282  16.002  1.00  0.00    -0.483 OA
BRANCH  14  15
ATOM     15  C   UNL     1      47.131  47.157  15.583  1.00  0.00    +0.123 A 
ATOM     16  C   UNL     1      46.694  48.119  14.653  1.00  0.00    -0.008 A 
ATOM     17  C   UNL     1      45.378  48.069  14.170  1.00  0.00    +0.023 A 
ATOM     18  C   UNL     1      44.505  47.080  14.618  1.00  0.00    +0.018 A 
ATOM     19  C   UNL     1      46.239  46.179  16.035  1.00  0.00    +0.048 A 
ATOM     20  C   UNL     1      44.928  46.138  15.550  1.00  0.00    +0.019 A 
ATOM     21  C   UNL     1      47.625  49.197  14.167  1.00  0.00    +0.048 C 
ATOM     22 Br   UNL     1      42.733  47.021  13.964  1.00  0.00    -0.051 Br
ENDBRANCH  14  15
ENDBRANCH  13  14
ENDBRANCH  10  13
ENDBRANCH   1   9
BRANCH   5  23
ATOM     23  C   UNL     1      50.813  55.198  19.253  1.00  0.00    +0.072 C 
ATOM     24  C   UNL     1      49.489  55.383  19.142  1.00  0.00    +0.017 C 
BRANCH  24  25
ATOM     25  C   UNL     1      48.813  56.638  19.514  1.00  0.00    +0.017 A 
ATOM     26  C   UNL     1      48.763  57.044  20.857  1.00  0.00    +0.012 A 
ATOM     27  C   UNL     1      48.167  57.416  18.529  1.00  0.00    +0.126 A 
ATOM     28  C   UNL     1      48.102  58.218  21.218  1.00  0.00    +0.001 A 
ATOM     29  C   UNL     1      47.509  58.593  18.905  1.00  0.00    +0.047 A 
ATOM     30  C   UNL     1      47.480  58.991  20.243  1.00  0.00    +0.004 A 
BRANCH  27  31
ATOM     31  O   UNL     1      48.249  56.949  17.238  1.00  0.00    -0.496 OA
ATOM     32  C   UNL     1      47.397  57.552  16.271  1.00  0.00    +0.278 C 
ENDBRANCH  27  31
ENDBRANCH  24  25
ENDBRANCH   5  23
TORSDOF 7
ENDMDL
MODEL 4
REMARK VINA RESULT:    -8.664      2.093      2.809
REMARK INTER + INTRA:         -12.732
REMARK INTER:                 -11.921
REMARK INTRA:                  -0.811
REMARK UNBOUND:                -0.522
REMARK SMILES COc1ccccc1/C=C/C(=O)NC(=S)NNC(=O)COc1ccc(Br)cc1C
REMARK SMILES IDX 16 1 14 2 15 3 13 4 11 5 12 6 17 9 18 10 19 11 20 13 21 14
REMARK SMILES IDX 22 15 28 16 27 17 25 18 23 19 24 20 29 21 26 22 10 23 9 24
REMARK SMILES IDX 8 25 7 26 3 27 6 28 4 29 5 30 2 31 1 32
REMARK H PARENT 16 7 13 8 17 12
ROOT
ATOM      1  N   UNL     1      47.130  50.490  16.617  1.00  0.00    -0.274 N 
ATOM      2  C   UNL     1      48.355  50.719  17.249  1.00  0.00    +0.192 C 
ATOM      3  S   UNL     1      49.426  49.485  17.626  1.00  0.00    -0.039 S 
ATOM      4  N   UNL     1      48.507  52.073  17.547  1.00  0.00    -0.298 N 
ATOM      5  C   UNL     1      49.581  52.726  18.133  1.00  0.00    +0.250 C 
ATOM      6  O   UNL     1      50.750  52.369  18.122  1.00  0.00    -0.270 OA
ATOM      7  H   UNL     1      46.705  51.251  16.082  1.00  0.00    +0.190 HD
ATOM      8  H   UNL     1      47.657  52.612  17.475  1.00  0.00    +0.172 HD
ENDROOT
BRANCH   1   9
ATOM      9  N   UNL     1      46.854  49.219  16.060  1.00  0.00    -0.265 N 
ATOM     10  C   UNL     1      45.725  48.569  16.537  1.00  0.00    +0.276 C 
ATOM     11  O   UNL     1      45.116  48.973  17.527  1.00  0.00    -0.269 OA
ATOM     12  H   UNL     1      47.161  49.090  15.095  1.00  0.00    +0.191 HD
BRANCH  10  13
ATOM     13  C   UNL     1      45.355  47.326  15.724  1.00  0.00    +0.331 C 
BRANCH  13  14
ATOM     14  O   UNL     1      45.534  47.439  14.323  1.00  0.00    -0.483 OA
BRANCH  14  15
ATOM     15  C   UNL     1      44.445  47.758  13.557  1.00  0.00    +0.123 A 
ATOM     16  C   UNL     1      44.715  48.501  12.392  1.00  0.00    -0.008 A 
ATOM     17  C   UNL     1      43.658  48.874  11.547  1.00  0.00    +0.023 A 
ATOM     18  C   UNL     1      42.349  48.520  11.866  1.00  0.00    +0.018 A 
ATOM     19  C   UNL     1      43.124  47.424  13.872  1.00  0.00    +0.048 A 
ATOM     20  C   UNL     1      42.077  47.801  13.025  1.00  0.00    +0.019 A 
ATOM     21  C   UNL     1      46.124  48.895  12.041  1.00  0.00    +0.048 C 
ATOM     22 Br   UNL     1      40.932  49.029  10.723  1.00  0.00    -0.051 Br
ENDBRANCH  14  15
ENDBRANCH  13  14
ENDBRANCH  10  13
ENDBRANCH   1   9
BRANCH   5  23
ATOM     23  C   UNL     1      49.245  54.076  18.656  1.00  0.00    +0.072 C 
ATOM     24  C   UNL     1      49.528  54.459  19.910  1.00  0.00    +0.017 C 
BRANCH  24  25
ATOM     25  C   UNL     1      49.188  55.789  20.447  1.00  0.00    +0.017 A 
ATOM     26  C   UNL     1      47.959  56.388  20.127  1.00  0.00    +0.012 A 
ATOM     27  C   UNL     1      50.116  56.491  21.245  1.00  0.00    +0.126 A 
ATOM     28  C   UNL     1      47.643  57.658  20.611  1.00  0.00    +0.001 A 
ATOM     29  C   UNL     1      49.785  57.764  21.726  1.00  0.00    +0.047 A 
ATOM     30  C   UNL     1      48.553  58.341  21.411  1.00  0.00    +0.004 A 
BRANCH  27  31
ATOM     31  O   UNL     1      51.302  55.846  21.506  1.00  0.00    -0.496 OA
ATOM     32  C   UNL     1      51.642  55.631  22.870  1.00  0.00    +0.278 C 
ENDBRANCH  27  31
ENDBRANCH  24  25
ENDBRANCH   5  23
TORSDOF 7
ENDMDL
MODEL 5
REMARK VINA RESULT:    -8.503      6.146      9.349
REMARK INTER + INTRA:         -12.505
REMARK INTER:                 -11.700
REMARK INTRA:                  -0.805
REMARK UNBOUND:                -0.522
REMARK SMILES COc1ccccc1/C=C/C(=O)NC(=S)NNC(=O)COc1ccc(Br)cc1C
REMARK SMILES IDX 16 1 14 2 15 3 13 4 11 5 12 6 17 9 18 10 19 11 20 13 21 14
REMARK SMILES IDX 22 15 28 16 27 17 25 18 23 19 24 20 29 21 26 22 10 23 9 24
REMARK SMILES IDX 8 25 7 26 3 27 6 28 4 29 5 30 2 31 1 32
REMARK H PARENT 16 7 13 8 17 12
ROOT
ATOM      1  N   UNL     1      48.887  58.280  21.072  1.00  0.00    -0.274 N 
ATOM      2  C   UNL     1      48.361  58.298  19.777  1.00  0.00    +0.192 C 
ATOM      3  S   UNL     1      48.581  57.040  18.691  1.00  0.00    -0.039 S 
ATOM      4  N   UNL     1      47.699  59.501  19.534  1.00  0.00    -0.298 N 
ATOM      5  C   UNL     1      47.009  59.909  18.402  1.00  0.00    +0.250 C 
ATOM      6  O   UNL     1      46.473  59.190  17.572  1.00  0.00    -0.270 OA
ATOM      7  H   UNL     1      48.434  58.847  21.793  1.00  0.00    +0.190 HD
ATOM      8  H   UNL     1      47.892  60.225  20.210  1.00  0.00    +0.172 HD
ENDROOT
BRANCH   1   9
ATOM      9  N   UNL     1      49.434  57.083  21.591  1.00  0.00    -0.265 N 
ATOM     10  C   UNL     1      50.806  57.072  21.800  1.00  0.00    +0.276 C 
ATOM     11  O   UNL     1      51.532  57.966  21.370  1.00  0.00    -0.269 OA
ATOM     12  H   UNL     1      48.811  56.543  22.192  1.00  0.00    +0.191 HD
BRANCH  10  13
ATOM     13  C   UNL     1      51.287  55.848  22.583  1.00  0.00    +0.331 C 
BRANCH  13  14
ATOM     14  O   UNL     1      52.230  55.029  21.914  1.00  0.00    -0.483 OA
BRANCH  14  15
ATOM     15  C   UNL     1      51.788  53.857  21.359  1.00  0.00    +0.123 A 
ATOM     16  C   UNL     1      51.628  53.867  19.961  1.00  0.00    -0.008 A 
ATOM     17  C   UNL     1      51.178  52.710  19.306  1.00  0.00    +0.023 A 
ATOM     18  C   UNL     1      50.879  51.563  20.039  1.00  0.00    +0.018 A 
ATOM     19  C   UNL     1      51.470  52.704  22.082  1.00  0.00    +0.048 A 
ATOM     20  C   UNL     1      51.020  51.556  21.422  1.00  0.00    +0.019 A 
ATOM     21  C   UNL     1      51.941  55.101  19.160  1.00  0.00    +0.048 C 
ATOM     22 Br   UNL     1      50.271  50.010  19.149  1.00  0.00    -0.051 Br
ENDBRANCH  14  15
ENDBRANCH  13  14
ENDBRANCH  10  13
ENDBRANCH   1   9
BRANCH   5  23
ATOM     23  C   UNL     1      46.780  61.376  18.340  1.00  0.00    +0.072 C 
ATOM     24  C   UNL     1      46.162  61.971  17.309  1.00  0.00    +0.017 C 
BRANCH  24  25
ATOM     25  C   UNL     1      45.940  63.425  17.228  1.00  0.00    +0.017 A 
ATOM     26  C   UNL     1      46.980  64.279  16.826  1.00  0.00    +0.012 A 
ATOM     27  C   UNL     1      44.695  63.976  17.601  1.00  0.00    +0.126 A 
ATOM     28  C   UNL     1      46.783  65.659  16.771  1.00  0.00    +0.001 A 
ATOM     29  C   UNL     1      44.511  65.363  17.540  1.00  0.00    +0.047 A 
ATOM     30  C   UNL     1      45.550  66.198  17.125  1.00  0.00    +0.004 A 
BRANCH  27  31
ATOM     31  O   UNL     1      43.729  63.080  17.995  1.00  0.00    -0.496 OA
ATOM     32  C   UNL     1      43.352  63.089  19.366  1.00  0.00    +0.278 C 
ENDBRANCH  27  31
ENDBRANCH  24  25
ENDBRANCH   5  23
TORSDOF 7
ENDMDL
