MODEL 1
REMARK VINA RESULT:    -9.629      0.000      0.000
REMARK INTER + INTRA:         -13.541
REMARK INTER:                 -13.006
REMARK INTRA:                  -0.534
REMARK UNBOUND:                -0.534
REMARK SMILES Cc1ccc(C(=O)N[C@@H](C(=O)NC2CCN(C(=O)Nc3ccccc3)CC2)C(C)C)cc1
REMARK SMILES IDX 9 1 8 2 6 3 7 4 5 6 2 7 3 8 32 9 4 10 31 11 1 12 28 13 29 14
REMARK SMILES IDX 30 15 10 16 11 17 12 18 13 20 14 21 27 22 15 23 26 24 16 25
REMARK SMILES IDX 17 26 18 27 19 28 20 30 21 31 25 32 22 33 24 34 23 35
REMARK H PARENT 8 5 12 19 19 29
ROOT
ATOM      1  C   UNL     1      50.440  55.483  20.297  1.00  0.00    +0.174 C 
ENDROOT
BRANCH   1   2
ATOM      2  N   UNL     1      49.988  54.134  19.971  1.00  0.00    -0.340 N 
ATOM      3  C   UNL     1      50.597  53.378  18.996  1.00  0.00    +0.251 C 
ATOM      4  O   UNL     1      51.604  53.741  18.397  1.00  0.00    -0.269 OA
ATOM      5  H   UNL     1      49.033  53.921  20.242  1.00  0.00    +0.164 HD
BRANCH   3   6
ATOM      6  C   UNL     1      49.952  52.075  18.663  1.00  0.00    +0.039 A 
ATOM      7  C   UNL     1      48.778  49.579  18.122  1.00  0.00    -0.051 A 
ATOM      8  C   UNL     1      48.392  50.714  17.401  1.00  0.00    +0.004 A 
ATOM      9  C   UNL     1      49.761  49.699  19.110  1.00  0.00    +0.004 A 
ATOM     10  C   UNL     1      48.968  51.959  17.675  1.00  0.00    +0.014 A 
ATOM     11  C   UNL     1      50.338  50.941  19.386  1.00  0.00    +0.014 A 
ATOM     12  C   UNL     1      48.177  48.241  17.804  1.00  0.00    +0.044 C 
ENDBRANCH   3   6
ENDBRANCH   1   2
BRANCH   1  13
ATOM     13  C   UNL     1      51.127  55.573  21.681  1.00  0.00    +0.015 C 
ATOM     14  C   UNL     1      52.286  56.572  21.674  1.00  0.00    +0.010 C 
ATOM     15  C   UNL     1      51.619  54.213  22.192  1.00  0.00    +0.010 C 
ENDBRANCH   1  13
BRANCH   1  16
ATOM     16  C   UNL     1      49.210  56.414  20.227  1.00  0.00    +0.243 C 
ATOM     17  O   UNL     1      48.633  56.815  21.237  1.00  0.00    -0.273 OA
ATOM     18  N   UNL     1      48.836  56.783  18.950  1.00  0.00    -0.351 N 
ATOM     19  H   UNL     1      49.422  56.506  18.171  1.00  0.00    +0.163 HD
BRANCH  18  20
ATOM     20  C   UNL     1      47.769  57.746  18.712  1.00  0.00    +0.085 C 
ATOM     21  C   UNL     1      47.522  57.919  17.216  1.00  0.00    +0.046 C 
ATOM     22  C   UNL     1      48.106  59.098  19.347  1.00  0.00    +0.046 C 
ATOM     23  C   UNL     1      46.439  58.958  16.961  1.00  0.00    +0.123 C 
ATOM     24  C   UNL     1      47.012  60.119  19.063  1.00  0.00    +0.123 C 
ATOM     25  N   UNL     1      46.724  60.227  17.629  1.00  0.00    -0.324 N 
ATOM     26  C   UNL     1      46.045  61.346  17.112  1.00  0.00    +0.321 C 
ATOM     27  O   UNL     1      45.238  61.242  16.193  1.00  0.00    -0.248 OA
ATOM     28  N   UNL     1      46.416  62.532  17.709  1.00  0.00    -0.308 N 
ATOM     29  H   UNL     1      47.336  62.528  18.118  1.00  0.00    +0.171 HD
BRANCH  28  30
ATOM     30  C   UNL     1      45.821  63.799  17.534  1.00  0.00    +0.042 A 
ATOM     31  C   UNL     1      46.638  64.834  17.059  1.00  0.00    +0.026 A 
ATOM     32  C   UNL     1      44.488  64.077  17.840  1.00  0.00    +0.026 A 
ATOM     33  C   UNL     1      46.123  66.119  16.875  1.00  0.00    +0.002 A 
ATOM     34  C   UNL     1      43.973  65.363  17.657  1.00  0.00    +0.002 A 
ATOM     35  C   UNL     1      44.788  66.383  17.173  1.00  0.00    +0.000 A 
ENDBRANCH  28  30
ENDBRANCH  18  20
ENDBRANCH   1  16
TORSDOF 6
ENDMDL
MODEL 2
REMARK VINA RESULT:    -9.576      5.196     11.102
REMARK INTER + INTRA:         -13.469
REMARK INTER:                 -12.886
REMARK INTRA:                  -0.583
REMARK UNBOUND:                -0.534
REMARK SMILES Cc1ccc(C(=O)N[C@@H](C(=O)NC2CCN(C(=O)Nc3ccccc3)CC2)C(C)C)cc1
REMARK SMILES IDX 9 1 8 2 6 3 7 4 5 6 2 7 3 8 32 9 4 10 31 11 1 12 28 13 29 14
REMARK SMILES IDX 30 15 10 16 11 17 12 18 13 20 14 21 27 22 15 23 26 24 16 25
REMARK SMILES IDX 17 26 18 27 19 28 20 30 21 31 25 32 22 33 24 34 23 35
REMARK H PARENT 8 5 12 19 19 29
ROOT
ATOM      1  C   UNL     1      51.320  51.213  20.431  1.00  0.00    +0.174 C 
ENDROOT
BRANCH   1   2
ATOM      2  N   UNL     1      50.665  52.509  20.280  1.00  0.00    -0.340 N 
ATOM      3  C   UNL     1      51.043  53.607  21.019  1.00  0.00    +0.251 C 
ATOM      4  O   UNL     1      52.001  53.601  21.785  1.00  0.00    -0.269 OA
ATOM      5  H   UNL     1      49.735  52.478  19.875  1.00  0.00    +0.164 HD
BRANCH   3   6
ATOM      6  C   UNL     1      50.204  54.830  20.871  1.00  0.00    +0.039 A 
ATOM      7  C   UNL     1      48.549  57.080  20.546  1.00  0.00    -0.051 A 
ATOM      8  C   UNL     1      49.674  57.141  21.376  1.00  0.00    +0.004 A 
ATOM      9  C   UNL     1      48.262  55.887  19.873  1.00  0.00    +0.004 A 
ATOM     10  C   UNL     1      50.493  56.021  21.547  1.00  0.00    +0.014 A 
ATOM     11  C   UNL     1      49.079  54.766  20.042  1.00  0.00    +0.014 A 
ATOM     12  C   UNL     1      47.690  58.293  20.344  1.00  0.00    +0.044 C 
ENDBRANCH   3   6
ENDBRANCH   1   2
BRANCH   1  13
ATOM     13  C   UNL     1      52.595  51.074  19.567  1.00  0.00    +0.015 C 
ATOM     14  C   UNL     1      52.378  51.604  18.147  1.00  0.00    +0.010 C 
ATOM     15  C   UNL     1      53.121  49.636  19.506  1.00  0.00    +0.010 C 
ENDBRANCH   1  13
BRANCH   1  16
ATOM     16  C   UNL     1      50.285  50.125  20.071  1.00  0.00    +0.243 C 
ATOM     17  O   UNL     1      50.107  49.131  20.775  1.00  0.00    -0.273 OA
ATOM     18  N   UNL     1      49.559  50.375  18.924  1.00  0.00    -0.351 N 
ATOM     19  H   UNL     1      49.678  51.265  18.454  1.00  0.00    +0.163 HD
BRANCH  18  20
ATOM     20  C   UNL     1      48.465  49.507  18.505  1.00  0.00    +0.085 C 
ATOM     21  C   UNL     1      48.997  48.304  17.730  1.00  0.00    +0.046 C 
ATOM     22  C   UNL     1      47.458  50.279  17.647  1.00  0.00    +0.046 C 
ATOM     23  C   UNL     1      47.855  47.419  17.251  1.00  0.00    +0.123 C 
ATOM     24  C   UNL     1      46.337  49.364  17.172  1.00  0.00    +0.123 C 
ATOM     25  N   UNL     1      46.855  48.171  16.495  1.00  0.00    -0.324 N 
ATOM     26  C   UNL     1      46.026  47.399  15.659  1.00  0.00    +0.321 C 
ATOM     27  O   UNL     1      46.118  46.176  15.613  1.00  0.00    -0.248 OA
ATOM     28  N   UNL     1      45.164  48.157  14.896  1.00  0.00    -0.308 N 
ATOM     29  H   UNL     1      45.471  49.101  14.726  1.00  0.00    +0.171 HD
BRANCH  28  30
ATOM     30  C   UNL     1      44.110  47.693  14.083  1.00  0.00    +0.042 A 
ATOM     31  C   UNL     1      44.107  48.094  12.740  1.00  0.00    +0.026 A 
ATOM     32  C   UNL     1      43.065  46.894  14.551  1.00  0.00    +0.026 A 
ATOM     33  C   UNL     1      43.087  47.686  11.878  1.00  0.00    +0.002 A 
ATOM     34  C   UNL     1      42.044  46.487  13.688  1.00  0.00    +0.002 A 
ATOM     35  C   UNL     1      42.055  46.880  12.353  1.00  0.00    +0.000 A 
ENDBRANCH  28  30
ENDBRANCH  18  20
ENDBRANCH   1  16
TORSDOF 6
ENDMDL
MODEL 3
REMARK VINA RESULT:    -9.262      2.546      4.226
REMARK INTER + INTRA:         -13.045
REMARK INTER:                 -12.162
REMARK INTRA:                  -0.883
REMARK UNBOUND:                -0.534
REMARK SMILES Cc1ccc(C(=O)N[C@@H](C(=O)NC2CCN(C(=O)Nc3ccccc3)CC2)C(C)C)cc1
REMARK SMILES IDX 9 1 8 2 6 3 7 4 5 6 2 7 3 8 32 9 4 10 31 11 1 12 28 13 29 14
REMARK SMILES IDX 30 15 10 16 11 17 12 18 13 20 14 21 27 22 15 23 26 24 16 25
REMARK SMILES IDX 17 26 18 27 19 28 20 30 21 31 25 32 22 33 24 34 23 35
REMARK H PARENT 8 5 12 19 19 29
ROOT
ATOM      1  C   UNL     1      50.993  51.689  17.798  1.00  0.00    +0.174 C 
ENDROOT
BRANCH   1   2
ATOM      2  N   UNL     1      49.861  50.808  18.066  1.00  0.00    -0.340 N 
ATOM      3  C   UNL     1      48.865  50.600  17.140  1.00  0.00    +0.251 C 
ATOM      4  O   UNL     1      48.897  51.064  16.005  1.00  0.00    -0.269 OA
ATOM      5  H   UNL     1      49.671  50.635  19.048  1.00  0.00    +0.164 HD
BRANCH   3   6
ATOM      6  C   UNL     1      47.696  49.791  17.588  1.00  0.00    +0.039 A 
ATOM      7  C   UNL     1      45.546  48.235  18.518  1.00  0.00    -0.051 A 
ATOM      8  C   UNL     1      45.363  49.144  17.470  1.00  0.00    +0.004 A 
ATOM      9  C   UNL     1      46.815  48.104  19.092  1.00  0.00    +0.004 A 
ATOM     10  C   UNL     1      46.428  49.926  17.012  1.00  0.00    +0.014 A 
ATOM     11  C   UNL     1      47.881  48.884  18.638  1.00  0.00    +0.014 A 
ATOM     12  C   UNL     1      44.407  47.379  18.985  1.00  0.00    +0.044 C 
ENDBRANCH   3   6
ENDBRANCH   1   2
BRANCH   1  13
ATOM     13  C   UNL     1      52.358  51.034  18.116  1.00  0.00    +0.015 C 
ATOM     14  C   UNL     1      53.001  50.428  16.866  1.00  0.00    +0.010 C 
ATOM     15  C   UNL     1      52.268  49.970  19.217  1.00  0.00    +0.010 C 
ENDBRANCH   1  13
BRANCH   1  16
ATOM     16  C   UNL     1      50.788  52.974  18.630  1.00  0.00    +0.243 C 
ATOM     17  O   UNL     1      51.440  53.207  19.648  1.00  0.00    -0.273 OA
ATOM     18  N   UNL     1      49.846  53.846  18.124  1.00  0.00    -0.351 N 
ATOM     19  H   UNL     1      49.427  53.644  17.223  1.00  0.00    +0.163 HD
BRANCH  18  20
ATOM     20  C   UNL     1      49.611  55.154  18.722  1.00  0.00    +0.085 C 
ATOM     21  C   UNL     1      48.658  55.041  19.910  1.00  0.00    +0.046 C 
ATOM     22  C   UNL     1      49.046  56.132  17.688  1.00  0.00    +0.046 C 
ATOM     23  C   UNL     1      48.375  56.411  20.511  1.00  0.00    +0.123 C 
ATOM     24  C   UNL     1      48.760  57.486  18.322  1.00  0.00    +0.123 C 
ATOM     25  N   UNL     1      47.905  57.366  19.508  1.00  0.00    -0.324 N 
ATOM     26  C   UNL     1      47.215  58.482  20.017  1.00  0.00    +0.321 C 
ATOM     27  O   UNL     1      47.065  58.652  21.223  1.00  0.00    -0.248 OA
ATOM     28  N   UNL     1      46.709  59.305  19.033  1.00  0.00    -0.308 N 
ATOM     29  H   UNL     1      46.544  58.851  18.149  1.00  0.00    +0.171 HD
BRANCH  28  30
ATOM     30  C   UNL     1      46.111  60.570  19.202  1.00  0.00    +0.042 A 
ATOM     31  C   UNL     1      46.943  61.631  19.585  1.00  0.00    +0.026 A 
ATOM     32  C   UNL     1      44.745  60.808  19.043  1.00  0.00    +0.026 A 
ATOM     33  C   UNL     1      46.419  62.909  19.785  1.00  0.00    +0.002 A 
ATOM     34  C   UNL     1      44.221  62.088  19.244  1.00  0.00    +0.002 A 
ATOM     35  C   UNL     1      45.056  63.138  19.613  1.00  0.00    +0.000 A 
ENDBRANCH  28  30
ENDBRANCH  18  20
ENDBRANCH   1  16
TORSDOF 6
ENDMDL
MODEL 4
REMARK VINA RESULT:    -9.165      2.904      3.861
REMARK INTER + INTRA:         -12.914
REMARK INTER:                 -12.099
REMARK INTRA:                  -0.816
REMARK UNBOUND:                -0.534
REMARK SMILES Cc1ccc(C(=O)N[C@@H](C(=O)NC2CCN(C(=O)Nc3ccccc3)CC2)C(C)C)cc1
REMARK SMILES IDX 9 1 8 2 6 3 7 4 5 6 2 7 3 8 32 9 4 10 31 11 1 12 28 13 29 14
REMARK SMILES IDX 30 15 10 16 11 17 12 18 13 20 14 21 27 22 15 23 26 24 16 25
REMARK SMILES IDX 17 26 18 27 19 28 20 30 21 31 25 32 22 33 24 34 23 35
REMARK H PARENT 8 5 12 19 19 29
ROOT
ATOM      1  C   UNL     1      51.514  52.632  19.532  1.00  0.00    +0.174 C 
ENDROOT
BRANCH   1   2
ATOM      2  N   UNL     1      50.285  51.872  19.329  1.00  0.00    -0.340 N 
ATOM      3  C   UNL     1      50.165  50.934  18.328  1.00  0.00    +0.251 C 
ATOM      4  O   UNL     1      51.096  50.610  17.598  1.00  0.00    -0.269 OA
ATOM      5  H   UNL     1      49.448  52.292  19.720  1.00  0.00    +0.164 HD
BRANCH   3   6
ATOM      6  C   UNL     1      48.815  50.330  18.140  1.00  0.00    +0.039 A 
ATOM      7  C   UNL     1      46.252  49.258  17.706  1.00  0.00    -0.051 A 
ATOM      8  C   UNL     1      47.167  48.596  18.533  1.00  0.00    +0.004 A 
ATOM      9  C   UNL     1      46.626  50.464  17.104  1.00  0.00    +0.004 A 
ATOM     10  C   UNL     1      48.445  49.123  18.742  1.00  0.00    +0.014 A 
ATOM     11  C   UNL     1      47.903  50.993  17.311  1.00  0.00    +0.014 A 
ATOM     12  C   UNL     1      44.873  48.704  17.508  1.00  0.00    +0.044 C 
ENDBRANCH   3   6
ENDBRANCH   1   2
BRANCH   1  13
ATOM     13  C   UNL     1      52.001  52.614  21.000  1.00  0.00    +0.015 C 
ATOM     14  C   UNL     1      52.100  51.188  21.547  1.00  0.00    +0.010 C 
ATOM     15  C   UNL     1      51.127  53.464  21.929  1.00  0.00    +0.010 C 
ENDBRANCH   1  13
BRANCH   1  16
ATOM     16  C   UNL     1      51.251  54.076  19.052  1.00  0.00    +0.243 C 
ATOM     17  O   UNL     1      52.165  54.860  18.800  1.00  0.00    -0.273 OA
ATOM     18  N   UNL     1      49.918  54.401  18.900  1.00  0.00    -0.351 N 
ATOM     19  H   UNL     1      49.221  53.674  19.019  1.00  0.00    +0.163 HD
BRANCH  18  20
ATOM     20  C   UNL     1      49.500  55.683  18.349  1.00  0.00    +0.085 C 
ATOM     21  C   UNL     1      48.724  56.491  19.387  1.00  0.00    +0.046 C 
ATOM     22  C   UNL     1      48.642  55.482  17.096  1.00  0.00    +0.046 C 
ATOM     23  C   UNL     1      48.246  57.812  18.801  1.00  0.00    +0.123 C 
ATOM     24  C   UNL     1      48.168  56.819  16.542  1.00  0.00    +0.123 C 
ATOM     25  N   UNL     1      47.491  57.625  17.563  1.00  0.00    -0.324 N 
ATOM     26  C   UNL     1      46.655  58.697  17.199  1.00  0.00    +0.321 C 
ATOM     27  O   UNL     1      46.609  59.731  17.860  1.00  0.00    -0.248 OA
ATOM     28  N   UNL     1      45.893  58.439  16.080  1.00  0.00    -0.308 N 
ATOM     29  H   UNL     1      45.723  57.462  15.903  1.00  0.00    +0.171 HD
BRANCH  28  30
ATOM     30  C   UNL     1      45.081  59.348  15.371  1.00  0.00    +0.042 A 
ATOM     31  C   UNL     1      45.283  59.451  13.988  1.00  0.00    +0.026 A 
ATOM     32  C   UNL     1      44.123  60.163  15.976  1.00  0.00    +0.026 A 
ATOM     33  C   UNL     1      44.526  60.340  13.223  1.00  0.00    +0.002 A 
ATOM     34  C   UNL     1      43.366  61.054  15.209  1.00  0.00    +0.002 A 
ATOM     35  C   UNL     1      43.566  61.142  13.834  1.00  0.00    +0.000 A 
ENDBRANCH  28  30
ENDBRANCH  18  20
ENDBRANCH   1  16
TORSDOF 6
ENDMDL
MODEL 5
REMARK VINA RESULT:    -9.107      1.266      1.995
REMARK INTER + INTRA:         -12.836
REMARK INTER:                 -12.684
REMARK INTRA:                  -0.152
REMARK UNBOUND:                -0.534
REMARK SMILES Cc1ccc(C(=O)N[C@@H](C(=O)NC2CCN(C(=O)Nc3ccccc3)CC2)C(C)C)cc1
REMARK SMILES IDX 9 1 8 2 6 3 7 4 5 6 2 7 3 8 32 9 4 10 31 11 1 12 28 13 29 14
REMARK SMILES IDX 30 15 10 16 11 17 12 18 13 20 14 21 27 22 15 23 26 24 16 25
REMARK SMILES IDX 17 26 18 27 19 28 20 30 21 31 25 32 22 33 24 34 23 35
REMARK H PARENT 8 5 12 19 19 29
ROOT
ATOM      1  C   UNL     1      51.460  54.450  20.157  1.00  0.00    +0.174 C 
ENDROOT
BRANCH   1   2
ATOM      2  N   UNL     1      50.680  53.238  19.931  1.00  0.00    -0.340 N 
ATOM      3  C   UNL     1      51.033  52.311  18.979  1.00  0.00    +0.251 C 
ATOM      4  O   UNL     1      52.064  52.389  18.317  1.00  0.00    -0.269 OA
ATOM      5  H   UNL     1      49.718  53.277  20.254  1.00  0.00    +0.164 HD
BRANCH   3   6
ATOM      6  C   UNL     1      50.077  51.190  18.752  1.00  0.00    +0.039 A 
ATOM      7  C   UNL     1      48.233  49.129  18.243  1.00  0.00    -0.051 A 
ATOM      8  C   UNL     1      49.294  48.928  19.134  1.00  0.00    +0.004 A 
ATOM      9  C   UNL     1      48.097  50.371  17.614  1.00  0.00    +0.004 A 
ATOM     10  C   UNL     1      50.217  49.948  19.381  1.00  0.00    +0.014 A 
ATOM     11  C   UNL     1      49.018  51.393  17.859  1.00  0.00    +0.014 A 
ATOM     12  C   UNL     1      47.230  48.040  18.004  1.00  0.00    +0.044 C 
ENDBRANCH   3   6
ENDBRANCH   1   2
BRANCH   1  13
ATOM     13  C   UNL     1      51.931  54.602  21.623  1.00  0.00    +0.015 C 
ATOM     14  C   UNL     1      51.407  53.468  22.508  1.00  0.00    +0.010 C 
ATOM     15  C   UNL     1      51.548  55.955  22.236  1.00  0.00    +0.010 C 
ENDBRANCH   1  13
BRANCH   1  16
ATOM     16  C   UNL     1      50.589  55.651  19.728  1.00  0.00    +0.243 C 
ATOM     17  O   UNL     1      51.055  56.617  19.126  1.00  0.00    -0.273 OA
ATOM     18  N   UNL     1      49.249  55.535  20.042  1.00  0.00    -0.351 N 
ATOM     19  H   UNL     1      48.914  54.665  20.439  1.00  0.00    +0.163 HD
BRANCH  18  20
ATOM     20  C   UNL     1      48.272  56.525  19.609  1.00  0.00    +0.085 C 
ATOM     21  C   UNL     1      48.326  56.709  18.094  1.00  0.00    +0.046 C 
ATOM     22  C   UNL     1      48.511  57.867  20.307  1.00  0.00    +0.046 C 
ATOM     23  C   UNL     1      47.338  57.775  17.641  1.00  0.00    +0.123 C 
ATOM     24  C   UNL     1      47.518  58.915  19.823  1.00  0.00    +0.123 C 
ATOM     25  N   UNL     1      47.518  59.034  18.361  1.00  0.00    -0.324 N 
ATOM     26  C   UNL     1      46.979  60.171  17.731  1.00  0.00    +0.321 C 
ATOM     27  O   UNL     1      46.364  60.089  16.671  1.00  0.00    -0.248 OA
ATOM     28  N   UNL     1      47.254  61.346  18.397  1.00  0.00    -0.308 N 
ATOM     29  H   UNL     1      48.077  61.318  18.977  1.00  0.00    +0.171 HD
BRANCH  28  30
ATOM     30  C   UNL     1      46.736  62.627  18.119  1.00  0.00    +0.042 A 
ATOM     31  C   UNL     1      45.461  62.929  18.618  1.00  0.00    +0.026 A 
ATOM     32  C   UNL     1      47.404  63.584  17.354  1.00  0.00    +0.026 A 
ATOM     33  C   UNL     1      44.876  64.172  18.371  1.00  0.00    +0.002 A 
ATOM     34  C   UNL     1      46.818  64.829  17.106  1.00  0.00    +0.002 A 
ATOM     35  C   UNL     1      45.556  65.124  17.615  1.00  0.00    +0.000 A 
ENDBRANCH  28  30
ENDBRANCH  18  20
ENDBRANCH   1  16
TORSDOF 6
ENDMDL
