MODEL 1
REMARK VINA RESULT:    -9.072      0.000      0.000
REMARK INTER + INTRA:         -13.467
REMARK INTER:                 -12.784
REMARK INTRA:                  -0.683
REMARK UNBOUND:                -0.683
REMARK SMILES O=C(/C=C/c1cccc([N+](=O)[O-])c1)NC(=S)NNC(=O)c1ccc(NC(=O)C2CC2)cc1
REMARK SMILES IDX 2 1 1 2 14 3 15 4 16 5 17 6 3 9 4 10 5 11 7 12 6 13 8 14
REMARK SMILES IDX 9 15 13 16 10 17 11 18 12 19 18 20 19 21 20 22 21 24 22 25
REMARK SMILES IDX 32 26 23 27 31 28 24 29 25 30 26 31 27 32 28 34 29 35 30 36
REMARK H PARENT 14 7 17 8 18 23 25 33
ROOT
ATOM      1  C   UNL     1      51.077  54.736  21.549  1.00  0.00    +0.250 C 
ATOM      2  O   UNL     1      52.043  55.204  22.133  1.00  0.00    -0.270 OA
ATOM      3  N   UNL     1      50.003  55.445  21.025  1.00  0.00    -0.298 N 
ATOM      4  C   UNL     1      49.920  56.796  20.679  1.00  0.00    +0.192 C 
ATOM      5  S   UNL     1      51.170  57.910  20.682  1.00  0.00    -0.039 S 
ATOM      6  N   UNL     1      48.623  57.107  20.257  1.00  0.00    -0.274 N 
ATOM      7  H   UNL     1      49.226  54.898  20.689  1.00  0.00    +0.172 HD
ATOM      8  H   UNL     1      47.844  56.570  20.644  1.00  0.00    +0.190 HD
ENDROOT
BRANCH   1   9
ATOM      9  C   UNL     1      50.890  53.262  21.416  1.00  0.00    +0.072 C 
ATOM     10  C   UNL     1      50.670  52.728  20.205  1.00  0.00    +0.014 C 
BRANCH  10  11
ATOM     11  C   UNL     1      50.477  51.290  19.978  1.00  0.00    -0.019 A 
ATOM     12  C   UNL     1      50.648  48.971  20.699  1.00  0.00    +0.008 A 
ATOM     13  C   UNL     1      50.863  50.333  20.929  1.00  0.00    +0.008 A 
ATOM     14  C   UNL     1      50.038  48.549  19.520  1.00  0.00    +0.085 A 
ATOM     15  C   UNL     1      49.636  49.501  18.575  1.00  0.00    +0.270 A 
ATOM     16  C   UNL     1      49.847  50.870  18.802  1.00  0.00    +0.093 A 
BRANCH  15  17
ATOM     17  N   UNL     1      48.989  49.062  17.333  1.00  0.00    +0.062 N 
ATOM     18  O   UNL     1      48.563  47.900  17.282  1.00  0.00    -0.258 OA
ATOM     19  O   UNL     1      48.902  49.883  16.407  1.00  0.00    -0.258 OA
ENDBRANCH  15  17
ENDBRANCH  10  11
ENDBRANCH   1   9
BRANCH   6  20
ATOM     20  N   UNL     1      48.264  58.456  20.029  1.00  0.00    -0.264 N 
ATOM     21  C   UNL     1      47.610  58.722  18.839  1.00  0.00    +0.269 C 
ATOM     22  O   UNL     1      47.494  57.875  17.956  1.00  0.00    -0.267 OA
ATOM     23  H   UNL     1      48.083  59.011  20.864  1.00  0.00    +0.191 HD
BRANCH  21  24
ATOM     24  C   UNL     1      47.014  60.078  18.689  1.00  0.00    +0.041 A 
ATOM     25  C   UNL     1      47.153  61.068  19.668  1.00  0.00    +0.016 A 
ATOM     26  C   UNL     1      46.313  60.370  17.516  1.00  0.00    +0.016 A 
ATOM     27  C   UNL     1      46.576  62.330  19.479  1.00  0.00    +0.027 A 
ATOM     28  C   UNL     1      45.736  61.631  17.333  1.00  0.00    +0.027 A 
ATOM     29  C   UNL     1      45.862  62.622  18.315  1.00  0.00    +0.041 A 
BRANCH  29  30
ATOM     30  N   UNL     1      45.254  63.865  18.056  1.00  0.00    -0.326 N 
ATOM     31  C   UNL     1      45.760  64.906  17.308  1.00  0.00    +0.227 C 
ATOM     32  O   UNL     1      46.836  64.970  16.736  1.00  0.00    -0.274 OA
ATOM     33  H   UNL     1      44.342  64.017  18.466  1.00  0.00    +0.169 HD
BRANCH  31  34
ATOM     34  C   UNL     1      44.840  66.078  17.256  1.00  0.00    +0.079 C 
ATOM     35  C   UNL     1      43.394  65.963  17.680  1.00  0.00    +0.014 C 
ATOM     36  C   UNL     1      43.734  66.108  16.226  1.00  0.00    +0.014 C 
ENDBRANCH  31  34
ENDBRANCH  29  30
ENDBRANCH  21  24
ENDBRANCH   6  20
TORSDOF 7
ENDMDL
MODEL 2
REMARK VINA RESULT:    -7.981      3.075     13.471
REMARK INTER + INTRA:         -11.930
REMARK INTER:                 -11.390
REMARK INTRA:                  -0.540
REMARK UNBOUND:                -0.683
REMARK SMILES O=C(/C=C/c1cccc([N+](=O)[O-])c1)NC(=S)NNC(=O)c1ccc(NC(=O)C2CC2)cc1
REMARK SMILES IDX 2 1 1 2 14 3 15 4 16 5 17 6 3 9 4 10 5 11 7 12 6 13 8 14
REMARK SMILES IDX 9 15 13 16 10 17 11 18 12 19 18 20 19 21 20 22 21 24 22 25
REMARK SMILES IDX 32 26 23 27 31 28 24 29 25 30 26 31 27 32 28 34 29 35 30 36
REMARK H PARENT 14 7 17 8 18 23 25 33
ROOT
ATOM      1  C   UNL     1      45.364  60.021  16.313  1.00  0.00    +0.250 C 
ATOM      2  O   UNL     1      44.347  59.672  15.732  1.00  0.00    -0.270 OA
ATOM      3  N   UNL     1      46.406  59.199  16.722  1.00  0.00    -0.298 N 
ATOM      4  C   UNL     1      46.758  57.924  16.270  1.00  0.00    +0.192 C 
ATOM      5  S   UNL     1      46.073  57.091  14.989  1.00  0.00    -0.039 S 
ATOM      6  N   UNL     1      47.834  57.428  17.013  1.00  0.00    -0.274 N 
ATOM      7  H   UNL     1      47.111  59.625  17.304  1.00  0.00    +0.172 HD
ATOM      8  H   UNL     1      47.940  57.737  17.981  1.00  0.00    +0.190 HD
ENDROOT
BRANCH   1   9
ATOM      9  C   UNL     1      45.560  61.431  16.756  1.00  0.00    +0.072 C 
ATOM     10  C   UNL     1      44.829  62.409  16.198  1.00  0.00    +0.014 C 
BRANCH  10  11
ATOM     11  C   UNL     1      44.951  63.823  16.572  1.00  0.00    -0.019 A 
ATOM     12  C   UNL     1      46.245  65.877  16.772  1.00  0.00    +0.008 A 
ATOM     13  C   UNL     1      46.159  64.525  16.430  1.00  0.00    +0.008 A 
ATOM     14  C   UNL     1      45.122  66.549  17.252  1.00  0.00    +0.085 A 
ATOM     15  C   UNL     1      43.910  65.859  17.378  1.00  0.00    +0.270 A 
ATOM     16  C   UNL     1      43.818  64.502  17.035  1.00  0.00    +0.093 A 
BRANCH  15  17
ATOM     17  N   UNL     1      42.723  66.563  17.879  1.00  0.00    +0.062 N 
ATOM     18  O   UNL     1      42.105  67.290  17.088  1.00  0.00    -0.258 OA
ATOM     19  O   UNL     1      42.405  66.385  19.064  1.00  0.00    -0.258 OA
ENDBRANCH  15  17
ENDBRANCH  10  11
ENDBRANCH   1   9
BRANCH   6  20
ATOM     20  N   UNL     1      48.240  56.084  16.847  1.00  0.00    -0.264 N 
ATOM     21  C   UNL     1      48.564  55.396  18.003  1.00  0.00    +0.269 C 
ATOM     22  O   UNL     1      48.656  55.959  19.092  1.00  0.00    -0.267 OA
ATOM     23  H   UNL     1      47.847  55.600  16.041  1.00  0.00    +0.191 HD
BRANCH  21  24
ATOM     24  C   UNL     1      48.758  53.925  17.877  1.00  0.00    +0.041 A 
ATOM     25  C   UNL     1      49.782  53.247  18.545  1.00  0.00    +0.016 A 
ATOM     26  C   UNL     1      47.866  53.203  17.079  1.00  0.00    +0.016 A 
ATOM     27  C   UNL     1      49.922  51.860  18.397  1.00  0.00    +0.027 A 
ATOM     28  C   UNL     1      48.012  51.819  16.933  1.00  0.00    +0.027 A 
ATOM     29  C   UNL     1      49.043  51.137  17.589  1.00  0.00    +0.041 A 
BRANCH  29  30
ATOM     30  N   UNL     1      49.122  49.745  17.392  1.00  0.00    -0.326 N 
ATOM     31  C   UNL     1      48.334  48.770  17.964  1.00  0.00    +0.227 C 
ATOM     32  O   UNL     1      47.425  48.912  18.766  1.00  0.00    -0.274 OA
ATOM     33  H   UNL     1      49.840  49.418  16.758  1.00  0.00    +0.169 HD
BRANCH  31  34
ATOM     34  C   UNL     1      48.709  47.396  17.528  1.00  0.00    +0.079 C 
ATOM     35  C   UNL     1      49.002  47.082  16.079  1.00  0.00    +0.014 C 
ATOM     36  C   UNL     1      47.734  46.585  16.706  1.00  0.00    +0.014 C 
ENDBRANCH  31  34
ENDBRANCH  29  30
ENDBRANCH  21  24
ENDBRANCH   6  20
TORSDOF 7
ENDMDL
MODEL 3
REMARK VINA RESULT:    -7.749      3.061     12.968
REMARK INTER + INTRA:         -11.603
REMARK INTER:                 -10.995
REMARK INTRA:                  -0.608
REMARK UNBOUND:                -0.683
REMARK SMILES O=C(/C=C/c1cccc([N+](=O)[O-])c1)NC(=S)NNC(=O)c1ccc(NC(=O)C2CC2)cc1
REMARK SMILES IDX 2 1 1 2 14 3 15 4 16 5 17 6 3 9 4 10 5 11 7 12 6 13 8 14
REMARK SMILES IDX 9 15 13 16 10 17 11 18 12 19 18 20 19 21 20 22 21 24 22 25
REMARK SMILES IDX 32 26 23 27 31 28 24 29 25 30 26 31 27 32 28 34 29 35 30 36
REMARK H PARENT 14 7 17 8 18 23 25 33
ROOT
ATOM      1  C   UNL     1      44.661  60.324  16.012  1.00  0.00    +0.250 C 
ATOM      2  O   UNL     1      44.129  59.517  15.264  1.00  0.00    -0.270 OA
ATOM      3  N   UNL     1      45.673  60.063  16.926  1.00  0.00    -0.298 N 
ATOM      4  C   UNL     1      46.578  58.998  16.964  1.00  0.00    +0.192 C 
ATOM      5  S   UNL     1      46.766  57.801  15.808  1.00  0.00    -0.039 S 
ATOM      6  N   UNL     1      47.382  59.089  18.106  1.00  0.00    -0.274 N 
ATOM      7  H   UNL     1      45.910  60.811  17.559  1.00  0.00    +0.172 HD
ATOM      8  H   UNL     1      46.994  59.535  18.939  1.00  0.00    +0.190 HD
ENDROOT
BRANCH   1   9
ATOM      9  C   UNL     1      44.184  61.734  16.097  1.00  0.00    +0.072 C 
ATOM     10  C   UNL     1      44.576  62.507  17.122  1.00  0.00    +0.014 C 
BRANCH  10  11
ATOM     11  C   UNL     1      44.159  63.905  17.287  1.00  0.00    -0.019 A 
ATOM     12  C   UNL     1      44.482  66.290  16.915  1.00  0.00    +0.008 A 
ATOM     13  C   UNL     1      44.911  64.968  16.764  1.00  0.00    +0.008 A 
ATOM     14  C   UNL     1      43.291  66.565  17.583  1.00  0.00    +0.085 A 
ATOM     15  C   UNL     1      42.527  65.508  18.092  1.00  0.00    +0.270 A 
ATOM     16  C   UNL     1      42.952  64.179  17.941  1.00  0.00    +0.093 A 
BRANCH  15  17
ATOM     17  N   UNL     1      41.269  65.792  18.793  1.00  0.00    +0.062 N 
ATOM     18  O   UNL     1      40.960  66.979  18.967  1.00  0.00    -0.258 OA
ATOM     19  O   UNL     1      40.587  64.827  19.166  1.00  0.00    -0.258 OA
ENDBRANCH  15  17
ENDBRANCH  10  11
ENDBRANCH   1   9
BRANCH   6  20
ATOM     20  N   UNL     1      48.246  58.021  18.440  1.00  0.00    -0.264 N 
ATOM     21  C   UNL     1      48.307  57.680  19.780  1.00  0.00    +0.269 C 
ATOM     22  O   UNL     1      47.775  58.366  20.651  1.00  0.00    -0.267 OA
ATOM     23  H   UNL     1      48.384  57.320  17.714  1.00  0.00    +0.191 HD
BRANCH  21  24
ATOM     24  C   UNL     1      49.016  56.417  20.120  1.00  0.00    +0.041 A 
ATOM     25  C   UNL     1      50.058  56.372  21.052  1.00  0.00    +0.016 A 
ATOM     26  C   UNL     1      48.604  55.234  19.498  1.00  0.00    +0.016 A 
ATOM     27  C   UNL     1      50.693  55.157  21.341  1.00  0.00    +0.027 A 
ATOM     28  C   UNL     1      49.243  54.024  19.788  1.00  0.00    +0.027 A 
ATOM     29  C   UNL     1      50.295  53.976  20.711  1.00  0.00    +0.041 A 
BRANCH  29  30
ATOM     30  N   UNL     1      50.886  52.721  20.949  1.00  0.00    -0.326 N 
ATOM     31  C   UNL     1      51.896  52.119  20.230  1.00  0.00    +0.227 C 
ATOM     32  O   UNL     1      52.469  52.541  19.238  1.00  0.00    -0.274 OA
ATOM     33  H   UNL     1      50.530  52.195  21.737  1.00  0.00    +0.169 HD
BRANCH  31  34
ATOM     34  C   UNL     1      52.268  50.780  20.767  1.00  0.00    +0.079 C 
ATOM     35  C   UNL     1      52.793  49.688  19.865  1.00  0.00    +0.014 C 
ATOM     36  C   UNL     1      51.410  49.581  20.434  1.00  0.00    +0.014 C 
ENDBRANCH  31  34
ENDBRANCH  29  30
ENDBRANCH  21  24
ENDBRANCH   6  20
TORSDOF 7
ENDMDL
MODEL 4
REMARK VINA RESULT:    -6.863      4.974      5.844
REMARK INTER + INTRA:         -10.354
REMARK INTER:                  -9.659
REMARK INTRA:                  -0.695
REMARK UNBOUND:                -0.683
REMARK SMILES O=C(/C=C/c1cccc([N+](=O)[O-])c1)NC(=S)NNC(=O)c1ccc(NC(=O)C2CC2)cc1
REMARK SMILES IDX 2 1 1 2 14 3 15 4 16 5 17 6 3 9 4 10 5 11 7 12 6 13 8 14
REMARK SMILES IDX 9 15 13 16 10 17 11 18 12 19 18 20 19 21 20 22 21 24 22 25
REMARK SMILES IDX 32 26 23 27 31 28 24 29 25 30 26 31 27 32 28 34 29 35 30 36
REMARK H PARENT 14 7 17 8 18 23 25 33
ROOT
ATOM      1  C   UNL     1      48.513  57.084  20.144  1.00  0.00    +0.250 C 
ATOM      2  O   UNL     1      48.017  57.869  20.938  1.00  0.00    -0.270 OA
ATOM      3  N   UNL     1      48.228  56.988  18.788  1.00  0.00    -0.298 N 
ATOM      4  C   UNL     1      47.657  57.936  17.934  1.00  0.00    +0.192 C 
ATOM      5  S   UNL     1      47.282  59.524  18.309  1.00  0.00    -0.039 S 
ATOM      6  N   UNL     1      47.481  57.392  16.657  1.00  0.00    -0.274 N 
ATOM      7  H   UNL     1      48.627  56.201  18.301  1.00  0.00    +0.172 HD
ATOM      8  H   UNL     1      47.324  56.385  16.576  1.00  0.00    +0.190 HD
ENDROOT
BRANCH   1   9
ATOM      9  C   UNL     1      49.457  56.020  20.592  1.00  0.00    +0.072 C 
ATOM     10  C   UNL     1      49.483  54.842  19.949  1.00  0.00    +0.014 C 
BRANCH  10  11
ATOM     11  C   UNL     1      50.379  53.740  20.317  1.00  0.00    -0.019 A 
ATOM     12  C   UNL     1      51.626  52.461  21.973  1.00  0.00    +0.008 A 
ATOM     13  C   UNL     1      50.790  53.531  21.643  1.00  0.00    +0.008 A 
ATOM     14  C   UNL     1      52.055  51.579  20.982  1.00  0.00    +0.085 A 
ATOM     15  C   UNL     1      51.633  51.771  19.661  1.00  0.00    +0.270 A 
ATOM     16  C   UNL     1      50.792  52.843  19.325  1.00  0.00    +0.093 A 
BRANCH  15  17
ATOM     17  N   UNL     1      52.078  50.843  18.615  1.00  0.00    +0.062 N 
ATOM     18  O   UNL     1      53.026  50.088  18.877  1.00  0.00    -0.258 OA
ATOM     19  O   UNL     1      51.478  50.865  17.531  1.00  0.00    -0.258 OA
ENDBRANCH  15  17
ENDBRANCH  10  11
ENDBRANCH   1   9
BRANCH   6  20
ATOM     20  N   UNL     1      46.755  58.114  15.682  1.00  0.00    -0.264 N 
ATOM     21  C   UNL     1      46.911  57.697  14.372  1.00  0.00    +0.269 C 
ATOM     22  O   UNL     1      47.753  56.861  14.049  1.00  0.00    -0.267 OA
ATOM     23  H   UNL     1      45.882  58.531  16.000  1.00  0.00    +0.191 HD
BRANCH  21  24
ATOM     24  C   UNL     1      45.981  58.280  13.367  1.00  0.00    +0.041 A 
ATOM     25  C   UNL     1      45.864  57.768  12.070  1.00  0.00    +0.016 A 
ATOM     26  C   UNL     1      45.183  59.363  13.749  1.00  0.00    +0.016 A 
ATOM     27  C   UNL     1      44.971  58.351  11.161  1.00  0.00    +0.027 A 
ATOM     28  C   UNL     1      44.295  59.943  12.836  1.00  0.00    +0.027 A 
ATOM     29  C   UNL     1      44.183  59.441  11.533  1.00  0.00    +0.041 A 
BRANCH  29  30
ATOM     30  N   UNL     1      43.267  60.078  10.675  1.00  0.00    -0.326 N 
ATOM     31  C   UNL     1      41.911  59.853  10.580  1.00  0.00    +0.227 C 
ATOM     32  O   UNL     1      41.235  59.050  11.203  1.00  0.00    -0.274 OA
ATOM     33  H   UNL     1      43.643  60.782  10.053  1.00  0.00    +0.169 HD
BRANCH  31  34
ATOM     34  C   UNL     1      41.255  60.710   9.552  1.00  0.00    +0.079 C 
ATOM     35  C   UNL     1      41.808  62.068   9.189  1.00  0.00    +0.014 C 
ATOM     36  C   UNL     1      40.539  61.970   9.981  1.00  0.00    +0.014 C 
ENDBRANCH  31  34
ENDBRANCH  29  30
ENDBRANCH  21  24
ENDBRANCH   6  20
TORSDOF 7
ENDMDL
MODEL 5
REMARK VINA RESULT:    -6.364      3.469      4.437
REMARK INTER + INTRA:          -9.651
REMARK INTER:                  -8.955
REMARK INTRA:                  -0.696
REMARK UNBOUND:                -0.683
REMARK SMILES O=C(/C=C/c1cccc([N+](=O)[O-])c1)NC(=S)NNC(=O)c1ccc(NC(=O)C2CC2)cc1
REMARK SMILES IDX 2 1 1 2 14 3 15 4 16 5 17 6 3 9 4 10 5 11 7 12 6 13 8 14
REMARK SMILES IDX 9 15 13 16 10 17 11 18 12 19 18 20 19 21 20 22 21 24 22 25
REMARK SMILES IDX 32 26 23 27 31 28 24 29 25 30 26 31 27 32 28 34 29 35 30 36
REMARK H PARENT 14 7 17 8 18 23 25 33
ROOT
ATOM      1  C   UNL     1      48.228  56.445  19.774  1.00  0.00    +0.250 C 
ATOM      2  O   UNL     1      47.935  57.087  20.772  1.00  0.00    -0.270 OA
ATOM      3  N   UNL     1      47.957  56.794  18.458  1.00  0.00    -0.298 N 
ATOM      4  C   UNL     1      47.669  58.049  17.915  1.00  0.00    +0.192 C 
ATOM      5  S   UNL     1      47.709  59.519  18.716  1.00  0.00    -0.039 S 
ATOM      6  N   UNL     1      47.385  57.932  16.551  1.00  0.00    -0.274 N 
ATOM      7  H   UNL     1      48.150  56.092  17.760  1.00  0.00    +0.172 HD
ATOM      8  H   UNL     1      46.975  57.059  16.213  1.00  0.00    +0.190 HD
ENDROOT
BRANCH   1   9
ATOM      9  C   UNL     1      48.856  55.097  19.877  1.00  0.00    +0.072 C 
ATOM     10  C   UNL     1      48.991  54.342  18.775  1.00  0.00    +0.014 C 
BRANCH  10  11
ATOM     11  C   UNL     1      49.597  53.006  18.779  1.00  0.00    -0.019 A 
ATOM     12  C   UNL     1      49.859  50.775  17.839  1.00  0.00    +0.008 A 
ATOM     13  C   UNL     1      49.252  52.034  17.828  1.00  0.00    +0.008 A 
ATOM     14  C   UNL     1      50.827  50.474  18.796  1.00  0.00    +0.085 A 
ATOM     15  C   UNL     1      51.189  51.447  19.737  1.00  0.00    +0.270 A 
ATOM     16  C   UNL     1      50.583  52.713  19.729  1.00  0.00    +0.093 A 
BRANCH  15  17
ATOM     17  N   UNL     1      52.210  51.137  20.744  1.00  0.00    +0.062 N 
ATOM     18  O   UNL     1      52.074  51.627  21.875  1.00  0.00    -0.258 OA
ATOM     19  O   UNL     1      53.147  50.400  20.407  1.00  0.00    -0.258 OA
ENDBRANCH  15  17
ENDBRANCH  10  11
ENDBRANCH   1   9
BRANCH   6  20
ATOM     20  N   UNL     1      46.892  59.050  15.839  1.00  0.00    -0.264 N 
ATOM     21  C   UNL     1      45.570  58.983  15.435  1.00  0.00    +0.269 C 
ATOM     22  O   UNL     1      44.909  57.951  15.537  1.00  0.00    -0.267 OA
ATOM     23  H   UNL     1      47.327  59.943  16.063  1.00  0.00    +0.191 HD
BRANCH  21  24
ATOM     24  C   UNL     1      44.966  60.235  14.902  1.00  0.00    +0.041 A 
ATOM     25  C   UNL     1      44.759  61.364  15.701  1.00  0.00    +0.016 A 
ATOM     26  C   UNL     1      44.619  60.282  13.549  1.00  0.00    +0.016 A 
ATOM     27  C   UNL     1      44.189  62.520  15.153  1.00  0.00    +0.027 A 
ATOM     28  C   UNL     1      44.048  61.438  13.006  1.00  0.00    +0.027 A 
ATOM     29  C   UNL     1      43.827  62.567  13.805  1.00  0.00    +0.041 A 
BRANCH  29  30
ATOM     30  N   UNL     1      43.250  63.691  13.185  1.00  0.00    -0.326 N 
ATOM     31  C   UNL     1      41.964  64.163  13.333  1.00  0.00    +0.227 C 
ATOM     32  O   UNL     1      41.064  63.696  14.012  1.00  0.00    -0.274 OA
ATOM     33  H   UNL     1      43.844  64.216  12.556  1.00  0.00    +0.169 HD
BRANCH  31  34
ATOM     34  C   UNL     1      41.697  65.378  12.513  1.00  0.00    +0.079 C 
ATOM     35  C   UNL     1      42.826  66.227  11.974  1.00  0.00    +0.014 C 
ATOM     36  C   UNL     1      41.977  66.744  13.097  1.00  0.00    +0.014 C 
ENDBRANCH  31  34
ENDBRANCH  29  30
ENDBRANCH  21  24
ENDBRANCH   6  20
TORSDOF 7
ENDMDL
