MODEL 1
REMARK VINA RESULT:    -9.013      0.000      0.000
REMARK INTER + INTRA:         -15.500
REMARK INTER:                 -13.756
REMARK INTRA:                  -1.744
REMARK UNBOUND:                -1.744
REMARK SMILES Cc1cc(NC(=O)CSCC(=O)NC[C@@H](c2ccccc2)c2c[nH]c3ccccc23)no1
REMARK SMILES IDX 10 1 9 2 8 3 6 4 5 5 7 6 4 8 2 9 3 10 32 11 31 12 1 13 11 14
REMARK SMILES IDX 12 15 13 16 14 18 15 19 16 20 17 21 21 22 18 23 20 24 19 25
REMARK SMILES IDX 22 26 23 27 30 28 24 29 25 30 29 31 26 32 28 33 27 34
REMARK H PARENT 5 7 13 17 24 35
ROOT
ATOM      1  C   UNL     1      52.399  51.501  20.228  1.00  0.00    +0.169 C 
ENDROOT
BRANCH   1   2
ATOM      2  S   UNL     1      52.463  49.816  19.534  1.00  0.00    -0.142 SA
BRANCH   2   3
ATOM      3  C   UNL     1      50.910  49.103  20.181  1.00  0.00    +0.170 C 
BRANCH   3   4
ATOM      4  C   UNL     1      49.775  49.160  19.168  1.00  0.00    +0.235 C 
ATOM      5  N   UNL     1      50.203  49.576  17.921  1.00  0.00    -0.307 N 
ATOM      6  O   UNL     1      48.625  48.876  19.492  1.00  0.00    -0.274 OA
ATOM      7  H   UNL     1      51.150  49.941  17.828  1.00  0.00    +0.171 HD
BRANCH   5   8
ATOM      8  C   UNL     1      49.387  49.750  16.821  1.00  0.00    +0.176 A 
ATOM      9  C   UNL     1      48.021  49.269  15.154  1.00  0.00    +0.135 A 
ATOM     10  C   UNL     1      48.688  48.685  16.203  1.00  0.00    +0.095 A 
ATOM     11  O   UNL     1      48.293  50.598  15.143  1.00  0.00    -0.360 OA
ATOM     12  N   UNL     1      49.141  50.901  16.189  1.00  0.00    -0.062 NA
ATOM     13  C   UNL     1      47.124  48.767  14.098  1.00  0.00    +0.091 C 
ENDBRANCH   5   8
ENDBRANCH   3   4
ENDBRANCH   2   3
ENDBRANCH   1   2
BRANCH   1  14
ATOM     14  C   UNL     1      51.860  52.482  19.199  1.00  0.00    +0.230 C 
ATOM     15  O   UNL     1      52.595  53.049  18.388  1.00  0.00    -0.274 OA
ATOM     16  N   UNL     1      50.504  52.705  19.275  1.00  0.00    -0.354 N 
ATOM     17  H   UNL     1      50.041  52.460  20.143  1.00  0.00    +0.163 HD
BRANCH  16  18
ATOM     18  C   UNL     1      49.866  53.764  18.499  1.00  0.00    +0.129 C 
BRANCH  18  19
ATOM     19  C   UNL     1      49.450  54.978  19.362  1.00  0.00    +0.071 C 
BRANCH  19  20
ATOM     20  C   UNL     1      50.555  55.686  20.136  1.00  0.00    -0.039 A 
ATOM     21  C   UNL     1      50.466  55.775  21.539  1.00  0.00    +0.004 A 
ATOM     22  C   UNL     1      51.693  56.232  19.517  1.00  0.00    +0.004 A 
ATOM     23  C   UNL     1      51.464  56.399  22.292  1.00  0.00    +0.000 A 
ATOM     24  C   UNL     1      52.692  56.855  20.271  1.00  0.00    +0.000 A 
ATOM     25  C   UNL     1      52.576  56.940  21.656  1.00  0.00    +0.000 A 
ENDBRANCH  19  20
BRANCH  19  26
ATOM     26  C   UNL     1      48.753  56.043  18.535  1.00  0.00    -0.013 A 
ATOM     27  C   UNL     1      48.609  56.002  17.157  1.00  0.00    +0.087 A 
ATOM     28  C   UNL     1      48.176  57.290  18.966  1.00  0.00    +0.003 A 
ATOM     29  N   UNL     1      47.976  57.143  16.748  1.00  0.00    -0.361 N 
ATOM     30  C   UNL     1      47.709  57.951  17.827  1.00  0.00    +0.046 A 
ATOM     31  C   UNL     1      48.014  57.928  20.214  1.00  0.00    +0.010 A 
ATOM     32  C   UNL     1      47.093  59.206  17.873  1.00  0.00    +0.026 A 
ATOM     33  C   UNL     1      47.400  59.185  20.280  1.00  0.00    +0.001 A 
ATOM     34  C   UNL     1      46.948  59.814  19.123  1.00  0.00    +0.002 A 
ATOM     35  H   UNL     1      47.746  57.373  15.791  1.00  0.00    +0.166 HD
ENDBRANCH  19  26
ENDBRANCH  18  19
ENDBRANCH  16  18
ENDBRANCH   1  14
TORSDOF 9
ENDMDL
MODEL 2
REMARK VINA RESULT:    -8.863      3.170      8.805
REMARK INTER + INTRA:         -15.271
REMARK INTER:                 -13.962
REMARK INTRA:                  -1.310
REMARK UNBOUND:                -1.744
REMARK SMILES Cc1cc(NC(=O)CSCC(=O)NC[C@@H](c2ccccc2)c2c[nH]c3ccccc23)no1
REMARK SMILES IDX 10 1 9 2 8 3 6 4 5 5 7 6 4 8 2 9 3 10 32 11 31 12 1 13 11 14
REMARK SMILES IDX 12 15 13 16 14 18 15 19 16 20 17 21 21 22 18 23 20 24 19 25
REMARK SMILES IDX 22 26 23 27 30 28 24 29 25 30 29 31 26 32 28 33 27 34
REMARK H PARENT 5 7 13 17 24 35
ROOT
ATOM      1  C   UNL     1      46.981  55.290  15.681  1.00  0.00    +0.169 C 
ENDROOT
BRANCH   1   2
ATOM      2  S   UNL     1      47.881  56.853  15.414  1.00  0.00    -0.142 SA
BRANCH   2   3
ATOM      3  C   UNL     1      46.884  58.015  16.411  1.00  0.00    +0.170 C 
BRANCH   3   4
ATOM      4  C   UNL     1      47.558  58.386  17.724  1.00  0.00    +0.235 C 
ATOM      5  N   UNL     1      47.916  57.275  18.464  1.00  0.00    -0.307 N 
ATOM      6  O   UNL     1      47.716  59.562  18.042  1.00  0.00    -0.274 OA
ATOM      7  H   UNL     1      47.579  56.360  18.165  1.00  0.00    +0.171 HD
BRANCH   5   8
ATOM      8  C   UNL     1      48.514  57.310  19.708  1.00  0.00    +0.176 A 
ATOM      9  C   UNL     1      49.993  56.958  21.310  1.00  0.00    +0.135 A 
ATOM     10  C   UNL     1      49.773  56.719  19.975  1.00  0.00    +0.095 A 
ATOM     11  O   UNL     1      48.941  57.652  21.813  1.00  0.00    -0.360 OA
ATOM     12  N   UNL     1      48.020  57.879  20.810  1.00  0.00    -0.062 NA
ATOM     13  C   UNL     1      51.079  56.627  22.249  1.00  0.00    +0.091 C 
ENDBRANCH   5   8
ENDBRANCH   3   4
ENDBRANCH   2   3
ENDBRANCH   1   2
BRANCH   1  14
ATOM     14  C   UNL     1      47.862  54.283  16.403  1.00  0.00    +0.230 C 
ATOM     15  O   UNL     1      48.661  54.622  17.278  1.00  0.00    -0.274 OA
ATOM     16  N   UNL     1      47.716  52.983  15.975  1.00  0.00    -0.354 N 
ATOM     17  H   UNL     1      47.293  52.839  15.065  1.00  0.00    +0.163 HD
BRANCH  16  18
ATOM     18  C   UNL     1      48.627  51.932  16.419  1.00  0.00    +0.129 C 
BRANCH  18  19
ATOM     19  C   UNL     1      47.964  50.928  17.390  1.00  0.00    +0.071 C 
BRANCH  19  20
ATOM     20  C   UNL     1      47.058  49.868  16.774  1.00  0.00    -0.039 A 
ATOM     21  C   UNL     1      45.877  49.497  17.446  1.00  0.00    +0.004 A 
ATOM     22  C   UNL     1      47.326  49.259  15.536  1.00  0.00    +0.004 A 
ATOM     23  C   UNL     1      45.008  48.543  16.911  1.00  0.00    +0.000 A 
ATOM     24  C   UNL     1      46.455  48.305  15.001  1.00  0.00    +0.000 A 
ATOM     25  C   UNL     1      45.298  47.946  15.689  1.00  0.00    +0.000 A 
ENDBRANCH  19  20
BRANCH  19  26
ATOM     26  C   UNL     1      48.995  50.185  18.220  1.00  0.00    -0.013 A 
ATOM     27  C   UNL     1      49.075  48.805  18.327  1.00  0.00    +0.087 A 
ATOM     28  C   UNL     1      50.017  50.718  19.082  1.00  0.00    +0.003 A 
ATOM     29  N   UNL     1      50.086  48.490  19.191  1.00  0.00    -0.361 N 
ATOM     30  C   UNL     1      50.672  49.635  19.674  1.00  0.00    +0.046 A 
ATOM     31  C   UNL     1      50.446  52.018  19.425  1.00  0.00    +0.010 A 
ATOM     32  C   UNL     1      51.725  49.786  20.584  1.00  0.00    +0.026 A 
ATOM     33  C   UNL     1      51.497  52.188  20.335  1.00  0.00    +0.001 A 
ATOM     34  C   UNL     1      52.125  51.085  20.906  1.00  0.00    +0.002 A 
ATOM     35  H   UNL     1      50.361  47.553  19.452  1.00  0.00    +0.166 HD
ENDBRANCH  19  26
ENDBRANCH  18  19
ENDBRANCH  16  18
ENDBRANCH   1  14
TORSDOF 9
ENDMDL
MODEL 3
REMARK VINA RESULT:    -8.698      1.786      2.063
REMARK INTER + INTRA:         -15.019
REMARK INTER:                 -13.690
REMARK INTRA:                  -1.329
REMARK UNBOUND:                -1.744
REMARK SMILES Cc1cc(NC(=O)CSCC(=O)NC[C@@H](c2ccccc2)c2c[nH]c3ccccc23)no1
REMARK SMILES IDX 10 1 9 2 8 3 6 4 5 5 7 6 4 8 2 9 3 10 32 11 31 12 1 13 11 14
REMARK SMILES IDX 12 15 13 16 14 18 15 19 16 20 17 21 21 22 18 23 20 24 19 25
REMARK SMILES IDX 22 26 23 27 30 28 24 29 25 30 29 31 26 32 28 33 27 34
REMARK H PARENT 5 7 13 17 24 35
ROOT
ATOM      1  C   UNL     1      52.354  51.913  21.068  1.00  0.00    +0.169 C 
ENDROOT
BRANCH   1   2
ATOM      2  S   UNL     1      52.513  51.172  19.409  1.00  0.00    -0.142 SA
BRANCH   2   3
ATOM      3  C   UNL     1      51.552  49.630  19.614  1.00  0.00    +0.170 C 
BRANCH   3   4
ATOM      4  C   UNL     1      50.199  49.689  18.918  1.00  0.00    +0.235 C 
ATOM      5  N   UNL     1      49.649  48.434  18.730  1.00  0.00    -0.307 N 
ATOM      6  O   UNL     1      49.716  50.762  18.567  1.00  0.00    -0.274 OA
ATOM      7  H   UNL     1      50.228  47.615  18.917  1.00  0.00    +0.171 HD
BRANCH   5   8
ATOM      8  C   UNL     1      48.448  48.183  18.099  1.00  0.00    +0.176 A 
ATOM      9  C   UNL     1      46.283  48.227  17.664  1.00  0.00    +0.135 A 
ATOM     10  C   UNL     1      47.217  48.731  18.535  1.00  0.00    +0.095 A 
ATOM     11  O   UNL     1      46.908  47.434  16.758  1.00  0.00    -0.360 OA
ATOM     12  N   UNL     1      48.262  47.411  17.024  1.00  0.00    -0.062 NA
ATOM     13  C   UNL     1      44.823  48.366  17.527  1.00  0.00    +0.091 C 
ENDBRANCH   5   8
ENDBRANCH   3   4
ENDBRANCH   2   3
ENDBRANCH   1   2
BRANCH   1  14
ATOM     14  C   UNL     1      51.034  52.656  21.196  1.00  0.00    +0.230 C 
ATOM     15  O   UNL     1      50.388  52.666  22.246  1.00  0.00    -0.274 OA
ATOM     16  N   UNL     1      50.611  53.277  20.043  1.00  0.00    -0.354 N 
ATOM     17  H   UNL     1      51.019  52.962  19.170  1.00  0.00    +0.163 HD
BRANCH  16  18
ATOM     18  C   UNL     1      49.275  53.856  19.941  1.00  0.00    +0.129 C 
BRANCH  18  19
ATOM     19  C   UNL     1      49.248  55.372  20.247  1.00  0.00    +0.071 C 
BRANCH  19  20
ATOM     20  C   UNL     1      50.578  56.029  20.598  1.00  0.00    -0.039 A 
ATOM     21  C   UNL     1      51.572  56.146  19.606  1.00  0.00    +0.004 A 
ATOM     22  C   UNL     1      50.855  56.563  21.868  1.00  0.00    +0.004 A 
ATOM     23  C   UNL     1      52.799  56.756  19.877  1.00  0.00    +0.000 A 
ATOM     24  C   UNL     1      52.084  57.174  22.138  1.00  0.00    +0.000 A 
ATOM     25  C   UNL     1      53.054  57.268  21.144  1.00  0.00    +0.000 A 
ENDBRANCH  19  20
BRANCH  19  26
ATOM     26  C   UNL     1      48.666  56.168  19.093  1.00  0.00    -0.013 A 
ATOM     27  C   UNL     1      48.682  55.763  17.768  1.00  0.00    +0.087 A 
ATOM     28  C   UNL     1      48.059  57.474  19.111  1.00  0.00    +0.003 A 
ATOM     29  N   UNL     1      48.116  56.744  17.002  1.00  0.00    -0.361 N 
ATOM     30  C   UNL     1      47.735  57.802  17.792  1.00  0.00    +0.046 A 
ATOM     31  C   UNL     1      47.761  58.415  20.119  1.00  0.00    +0.010 A 
ATOM     32  C   UNL     1      47.134  59.014  17.434  1.00  0.00    +0.026 A 
ATOM     33  C   UNL     1      47.160  59.634  19.779  1.00  0.00    +0.001 A 
ATOM     34  C   UNL     1      46.853  59.927  18.454  1.00  0.00    +0.002 A 
ATOM     35  H   UNL     1      48.001  56.709  15.999  1.00  0.00    +0.166 HD
ENDBRANCH  19  26
ENDBRANCH  18  19
ENDBRANCH  16  18
ENDBRANCH   1  14
TORSDOF 9
ENDMDL
MODEL 4
REMARK VINA RESULT:    -8.409      3.191      8.119
REMARK INTER + INTRA:         -14.577
REMARK INTER:                 -13.690
REMARK INTRA:                  -0.887
REMARK UNBOUND:                -1.744
REMARK SMILES Cc1cc(NC(=O)CSCC(=O)NC[C@@H](c2ccccc2)c2c[nH]c3ccccc23)no1
REMARK SMILES IDX 10 1 9 2 8 3 6 4 5 5 7 6 4 8 2 9 3 10 32 11 31 12 1 13 11 14
REMARK SMILES IDX 12 15 13 16 14 18 15 19 16 20 17 21 21 22 18 23 20 24 19 25
REMARK SMILES IDX 22 26 23 27 30 28 24 29 25 30 29 31 26 32 28 33 27 34
REMARK H PARENT 5 7 13 17 24 35
ROOT
ATOM      1  C   UNL     1      48.820  56.412  17.241  1.00  0.00    +0.169 C 
ENDROOT
BRANCH   1   2
ATOM      2  S   UNL     1      47.588  57.750  17.106  1.00  0.00    -0.142 SA
BRANCH   2   3
ATOM      3  C   UNL     1      47.745  58.547  18.743  1.00  0.00    +0.170 C 
BRANCH   3   4
ATOM      4  C   UNL     1      48.200  57.576  19.824  1.00  0.00    +0.235 C 
ATOM      5  N   UNL     1      49.555  57.674  20.084  1.00  0.00    -0.307 N 
ATOM      6  O   UNL     1      47.406  56.801  20.351  1.00  0.00    -0.274 OA
ATOM      7  H   UNL     1      50.131  58.240  19.460  1.00  0.00    +0.171 HD
BRANCH   5   8
ATOM      8  C   UNL     1      50.246  56.896  20.991  1.00  0.00    +0.176 A 
ATOM      9  C   UNL     1      51.121  55.109  21.948  1.00  0.00    +0.135 A 
ATOM     10  C   UNL     1      50.402  55.496  20.845  1.00  0.00    +0.095 A 
ATOM     11  O   UNL     1      51.388  56.202  22.707  1.00  0.00    -0.360 OA
ATOM     12  N   UNL     1      50.847  57.321  22.105  1.00  0.00    -0.062 NA
ATOM     13  C   UNL     1      51.628  53.818  22.445  1.00  0.00    +0.091 C 
ENDBRANCH   5   8
ENDBRANCH   3   4
ENDBRANCH   2   3
ENDBRANCH   1   2
BRANCH   1  14
ATOM     14  C   UNL     1      48.238  55.099  16.744  1.00  0.00    +0.230 C 
ATOM     15  O   UNL     1      47.504  55.040  15.755  1.00  0.00    -0.274 OA
ATOM     16  N   UNL     1      48.568  54.000  17.505  1.00  0.00    -0.354 N 
ATOM     17  H   UNL     1      48.894  54.172  18.450  1.00  0.00    +0.163 HD
BRANCH  16  18
ATOM     18  C   UNL     1      47.930  52.706  17.285  1.00  0.00    +0.129 C 
BRANCH  18  19
ATOM     19  C   UNL     1      48.944  51.572  17.009  1.00  0.00    +0.071 C 
BRANCH  19  20
ATOM     20  C   UNL     1      49.613  50.933  18.220  1.00  0.00    -0.039 A 
ATOM     21  C   UNL     1      50.318  51.748  19.128  1.00  0.00    +0.004 A 
ATOM     22  C   UNL     1      49.531  49.559  18.503  1.00  0.00    +0.004 A 
ATOM     23  C   UNL     1      50.932  51.210  20.261  1.00  0.00    +0.000 A 
ATOM     24  C   UNL     1      50.144  49.021  19.638  1.00  0.00    +0.000 A 
ATOM     25  C   UNL     1      50.845  49.845  20.515  1.00  0.00    +0.000 A 
ENDBRANCH  19  20
BRANCH  19  26
ATOM     26  C   UNL     1      48.319  50.440  16.214  1.00  0.00    -0.013 A 
ATOM     27  C   UNL     1      48.818  49.945  15.020  1.00  0.00    +0.087 A 
ATOM     28  C   UNL     1      47.104  49.714  16.477  1.00  0.00    +0.003 A 
ATOM     29  N   UNL     1      47.979  48.967  14.564  1.00  0.00    -0.361 N 
ATOM     30  C   UNL     1      46.920  48.811  15.427  1.00  0.00    +0.046 A 
ATOM     31  C   UNL     1      46.134  49.743  17.502  1.00  0.00    +0.010 A 
ATOM     32  C   UNL     1      45.826  47.943  15.351  1.00  0.00    +0.026 A 
ATOM     33  C   UNL     1      45.031  48.881  17.442  1.00  0.00    +0.001 A 
ATOM     34  C   UNL     1      44.881  47.995  16.379  1.00  0.00    +0.002 A 
ATOM     35  H   UNL     1      48.104  48.439  13.712  1.00  0.00    +0.166 HD
ENDBRANCH  19  26
ENDBRANCH  18  19
ENDBRANCH  16  18
ENDBRANCH   1  14
TORSDOF 9
ENDMDL
MODEL 5
REMARK VINA RESULT:    -8.341      5.070      9.547
REMARK INTER + INTRA:         -14.474
REMARK INTER:                 -13.234
REMARK INTRA:                  -1.240
REMARK UNBOUND:                -1.744
REMARK SMILES Cc1cc(NC(=O)CSCC(=O)NC[C@@H](c2ccccc2)c2c[nH]c3ccccc23)no1
REMARK SMILES IDX 10 1 9 2 8 3 6 4 5 5 7 6 4 8 2 9 3 10 32 11 31 12 1 13 11 14
REMARK SMILES IDX 12 15 13 16 14 18 15 19 16 20 17 21 21 22 18 23 20 24 19 25
REMARK SMILES IDX 22 26 23 27 30 28 24 29 25 30 29 31 26 32 28 33 27 34
REMARK H PARENT 5 7 13 17 24 35
ROOT
ATOM      1  C   UNL     1      47.173  58.390  17.193  1.00  0.00    +0.169 C 
ENDROOT
BRANCH   1   2
ATOM      2  S   UNL     1      47.497  59.327  18.724  1.00  0.00    -0.142 SA
BRANCH   2   3
ATOM      3  C   UNL     1      47.771  61.008  18.062  1.00  0.00    +0.170 C 
BRANCH   3   4
ATOM      4  C   UNL     1      46.469  61.743  17.777  1.00  0.00    +0.235 C 
ATOM      5  N   UNL     1      46.264  62.805  18.638  1.00  0.00    -0.307 N 
ATOM      6  O   UNL     1      45.717  61.370  16.881  1.00  0.00    -0.274 OA
ATOM      7  H   UNL     1      46.882  62.906  19.443  1.00  0.00    +0.171 HD
BRANCH   5   8
ATOM      8  C   UNL     1      45.155  63.627  18.633  1.00  0.00    +0.176 A 
ATOM      9  C   UNL     1      43.758  65.222  18.017  1.00  0.00    +0.135 A 
ATOM     10  C   UNL     1      44.944  64.631  17.657  1.00  0.00    +0.095 A 
ATOM     11  O   UNL     1      43.281  64.612  19.130  1.00  0.00    -0.360 OA
ATOM     12  N   UNL     1      44.150  63.610  19.512  1.00  0.00    -0.062 NA
ATOM     13  C   UNL     1      42.949  66.325  17.467  1.00  0.00    +0.091 C 
ENDBRANCH   5   8
ENDBRANCH   3   4
ENDBRANCH   2   3
ENDBRANCH   1   2
BRANCH   1  14
ATOM     14  C   UNL     1      48.035  57.139  17.140  1.00  0.00    +0.230 C 
ATOM     15  O   UNL     1      48.191  56.496  16.101  1.00  0.00    -0.274 OA
ATOM     16  N   UNL     1      48.589  56.774  18.345  1.00  0.00    -0.354 N 
ATOM     17  H   UNL     1      48.167  57.154  19.185  1.00  0.00    +0.163 HD
BRANCH  16  18
ATOM     18  C   UNL     1      49.272  55.494  18.509  1.00  0.00    +0.129 C 
BRANCH  18  19
ATOM     19  C   UNL     1      49.518  55.125  19.990  1.00  0.00    +0.071 C 
BRANCH  19  20
ATOM     20  C   UNL     1      50.388  53.903  20.262  1.00  0.00    -0.039 A 
ATOM     21  C   UNL     1      50.958  53.208  19.176  1.00  0.00    +0.004 A 
ATOM     22  C   UNL     1      50.684  53.448  21.558  1.00  0.00    +0.004 A 
ATOM     23  C   UNL     1      51.776  52.094  19.377  1.00  0.00    +0.000 A 
ATOM     24  C   UNL     1      51.503  52.333  21.758  1.00  0.00    +0.000 A 
ATOM     25  C   UNL     1      52.047  51.656  20.669  1.00  0.00    +0.000 A 
ENDBRANCH  19  20
BRANCH  19  26
ATOM     26  C   UNL     1      50.138  56.276  20.761  1.00  0.00    -0.013 A 
ATOM     27  C   UNL     1      49.443  57.120  21.612  1.00  0.00    +0.087 A 
ATOM     28  C   UNL     1      51.494  56.758  20.731  1.00  0.00    +0.003 A 
ATOM     29  N   UNL     1      50.305  58.066  22.094  1.00  0.00    -0.361 N 
ATOM     30  C   UNL     1      51.560  57.875  21.567  1.00  0.00    +0.046 A 
ATOM     31  C   UNL     1      52.674  56.358  20.067  1.00  0.00    +0.010 A 
ATOM     32  C   UNL     1      52.735  58.607  21.770  1.00  0.00    +0.026 A 
ATOM     33  C   UNL     1      53.859  57.079  20.258  1.00  0.00    +0.001 A 
ATOM     34  C   UNL     1      53.886  58.189  21.097  1.00  0.00    +0.002 A 
ATOM     35  H   UNL     1      50.060  58.807  22.735  1.00  0.00    +0.166 HD
ENDBRANCH  19  26
ENDBRANCH  18  19
ENDBRANCH  16  18
ENDBRANCH   1  14
TORSDOF 9
ENDMDL
