MODEL 1
REMARK VINA RESULT:    -9.698      0.000      0.000
REMARK INTER + INTRA:         -17.520
REMARK INTER:                 -15.651
REMARK INTRA:                  -1.869
REMARK UNBOUND:                -1.869
REMARK SMILES NS(=O)(=O)c1ccc(C(=O)OCC(=O)NCCC(c2ccccc2)c2ccccc2)cc1
REMARK SMILES IDX 12 1 13 2 15 3 14 4 16 6 17 7 18 8 19 9 22 10 21 11 23 12
REMARK SMILES IDX 20 13 24 14 25 15 26 16 30 17 27 18 29 19 28 20 11 21 9 22
REMARK SMILES IDX 10 23 8 24 7 25 31 26 6 27 32 28 5 29 2 30 3 31 4 32 1 33
REMARK H PARENT 15 5 1 34 1 35
ROOT
ATOM      1  C   UNL     1      52.065  50.571  18.822  1.00  0.00    +0.333 C 
ENDROOT
BRANCH   1   2
ATOM      2  C   UNL     1      52.490  52.038  18.726  1.00  0.00    +0.258 C 
ATOM      3  N   UNL     1      52.084  52.811  19.795  1.00  0.00    -0.353 N 
ATOM      4  O   UNL     1      53.143  52.482  17.784  1.00  0.00    -0.271 OA
ATOM      5  H   UNL     1      51.692  52.349  20.607  1.00  0.00    +0.163 HD
BRANCH   3   6
ATOM      6  C   UNL     1      52.424  54.214  19.902  1.00  0.00    +0.117 C 
BRANCH   6   7
ATOM      7  C   UNL     1      51.433  55.149  19.204  1.00  0.00    +0.034 C 
BRANCH   7   8
ATOM      8  C   UNL     1      49.915  54.941  19.481  1.00  0.00    +0.051 C 
BRANCH   8   9
ATOM      9  C   UNL     1      49.090  54.384  18.313  1.00  0.00    -0.040 A 
ATOM     10  C   UNL     1      47.499  53.286  16.244  1.00  0.00    +0.000 A 
ATOM     11  C   UNL     1      47.806  54.642  16.248  1.00  0.00    +0.000 A 
ATOM     12  C   UNL     1      47.953  52.476  17.279  1.00  0.00    +0.000 A 
ATOM     13  C   UNL     1      48.580  55.187  17.278  1.00  0.00    +0.004 A 
ATOM     14  C   UNL     1      48.733  53.021  18.303  1.00  0.00    +0.004 A 
ENDBRANCH   8   9
BRANCH   8  15
ATOM     15  C   UNL     1      49.331  56.130  20.249  1.00  0.00    -0.040 A 
ATOM     16  C   UNL     1      50.132  56.803  21.189  1.00  0.00    +0.004 A 
ATOM     17  C   UNL     1      48.023  56.600  20.041  1.00  0.00    +0.004 A 
ATOM     18  C   UNL     1      49.642  57.904  21.895  1.00  0.00    +0.000 A 
ATOM     19  C   UNL     1      47.534  57.702  20.747  1.00  0.00    +0.000 A 
ATOM     20  C   UNL     1      48.344  58.352  21.673  1.00  0.00    +0.000 A 
ENDBRANCH   8  15
ENDBRANCH   7   8
ENDBRANCH   6   7
ENDBRANCH   3   6
ENDBRANCH   1   2
BRANCH   1  21
ATOM     21  O   UNL     1      50.766  50.350  18.274  1.00  0.00    -0.452 OA
BRANCH  21  22
ATOM     22  C   UNL     1      49.985  49.533  19.022  1.00  0.00    +0.338 C 
ATOM     23  O   UNL     1      50.164  49.249  20.196  1.00  0.00    -0.246 OA
BRANCH  22  24
ATOM     24  C   UNL     1      48.867  48.990  18.205  1.00  0.00    +0.060 A 
ATOM     25  C   UNL     1      47.628  48.786  18.832  1.00  0.00    +0.017 A 
ATOM     26  C   UNL     1      49.011  48.695  16.841  1.00  0.00    +0.017 A 
ATOM     27  C   UNL     1      46.544  48.289  18.105  1.00  0.00    +0.022 A 
ATOM     28  C   UNL     1      47.929  48.201  16.108  1.00  0.00    +0.022 A 
ATOM     29  C   UNL     1      46.699  48.009  16.743  1.00  0.00    +0.082 A 
BRANCH  29  30
ATOM     30  S   UNL     1      45.315  47.380  15.828  1.00  0.00    +0.238 S 
ATOM     31  O   UNL     1      45.018  48.301  14.755  1.00  0.00    -0.207 OA
ATOM     32  O   UNL     1      45.520  45.969  15.610  1.00  0.00    -0.207 OA
BRANCH  30  33
ATOM     33  N   UNL     1      44.064  47.564  16.938  1.00  0.00    -0.225 NA
ATOM     34  H   UNL     1      43.992  46.794  17.603  1.00  0.00    +0.137 HD
ATOM     35  H   UNL     1      44.170  48.464  17.411  1.00  0.00    +0.137 HD
ENDBRANCH  30  33
ENDBRANCH  29  30
ENDBRANCH  22  24
ENDBRANCH  21  22
ENDBRANCH   1  21
TORSDOF 11
ENDMDL
MODEL 2
REMARK VINA RESULT:    -9.292      4.373      8.875
REMARK INTER + INTRA:         -16.865
REMARK INTER:                 -15.759
REMARK INTRA:                  -1.105
REMARK UNBOUND:                -1.869
REMARK SMILES NS(=O)(=O)c1ccc(C(=O)OCC(=O)NCCC(c2ccccc2)c2ccccc2)cc1
REMARK SMILES IDX 12 1 13 2 15 3 14 4 16 6 17 7 18 8 19 9 22 10 21 11 23 12
REMARK SMILES IDX 20 13 24 14 25 15 26 16 30 17 27 18 29 19 28 20 11 21 9 22
REMARK SMILES IDX 10 23 8 24 7 25 31 26 6 27 32 28 5 29 2 30 3 31 4 32 1 33
REMARK H PARENT 15 5 1 34 1 35
ROOT
ATOM      1  C   UNL     1      48.587  56.629  17.214  1.00  0.00    +0.333 C 
ENDROOT
BRANCH   1   2
ATOM      2  C   UNL     1      47.944  55.533  16.360  1.00  0.00    +0.258 C 
ATOM      3  N   UNL     1      48.223  54.251  16.790  1.00  0.00    -0.353 N 
ATOM      4  O   UNL     1      47.234  55.777  15.387  1.00  0.00    -0.271 OA
ATOM      5  H   UNL     1      48.676  54.128  17.687  1.00  0.00    +0.163 HD
BRANCH   3   6
ATOM      6  C   UNL     1      47.672  53.084  16.134  1.00  0.00    +0.117 C 
BRANCH   6   7
ATOM      7  C   UNL     1      47.132  52.025  17.099  1.00  0.00    +0.034 C 
BRANCH   7   8
ATOM      8  C   UNL     1      47.666  50.570  16.957  1.00  0.00    +0.051 C 
BRANCH   8   9
ATOM      9  C   UNL     1      46.606  49.488  16.704  1.00  0.00    -0.040 A 
ATOM     10  C   UNL     1      44.748  47.412  16.203  1.00  0.00    +0.000 A 
ATOM     11  C   UNL     1      44.626  48.202  17.341  1.00  0.00    +0.000 A 
ATOM     12  C   UNL     1      45.805  47.628  15.327  1.00  0.00    +0.000 A 
ATOM     13  C   UNL     1      45.554  49.219  17.596  1.00  0.00    +0.004 A 
ATOM     14  C   UNL     1      46.726  48.650  15.579  1.00  0.00    +0.004 A 
ENDBRANCH   8   9
BRANCH   8  15
ATOM     15  C   UNL     1      48.734  50.272  18.013  1.00  0.00    -0.040 A 
ATOM     16  C   UNL     1      49.632  51.288  18.388  1.00  0.00    +0.004 A 
ATOM     17  C   UNL     1      48.847  49.025  18.649  1.00  0.00    +0.004 A 
ATOM     18  C   UNL     1      50.608  51.062  19.361  1.00  0.00    +0.000 A 
ATOM     19  C   UNL     1      49.823  48.800  19.623  1.00  0.00    +0.000 A 
ATOM     20  C   UNL     1      50.702  49.818  19.978  1.00  0.00    +0.000 A 
ENDBRANCH   8  15
ENDBRANCH   7   8
ENDBRANCH   6   7
ENDBRANCH   3   6
ENDBRANCH   1   2
BRANCH   1  21
ATOM     21  O   UNL     1      48.087  56.631  18.551  1.00  0.00    -0.452 OA
BRANCH  21  22
ATOM     22  C   UNL     1      48.700  55.741  19.369  1.00  0.00    +0.338 C 
ATOM     23  O   UNL     1      48.289  54.627  19.651  1.00  0.00    -0.246 OA
BRANCH  22  24
ATOM     24  C   UNL     1      49.958  56.317  19.916  1.00  0.00    +0.060 A 
ATOM     25  C   UNL     1      49.873  57.123  21.062  1.00  0.00    +0.017 A 
ATOM     26  C   UNL     1      51.211  56.066  19.336  1.00  0.00    +0.017 A 
ATOM     27  C   UNL     1      51.027  57.677  21.621  1.00  0.00    +0.022 A 
ATOM     28  C   UNL     1      52.368  56.616  19.893  1.00  0.00    +0.022 A 
ATOM     29  C   UNL     1      52.270  57.412  21.038  1.00  0.00    +0.082 A 
BRANCH  29  30
ATOM     30  S   UNL     1      53.729  58.118  21.757  1.00  0.00    +0.238 S 
ATOM     31  O   UNL     1      54.162  57.271  22.844  1.00  0.00    -0.207 OA
ATOM     32  O   UNL     1      54.609  58.525  20.688  1.00  0.00    -0.207 OA
BRANCH  30  33
ATOM     33  N   UNL     1      53.112  59.504  22.484  1.00  0.00    -0.225 NA
ATOM     34  H   UNL     1      53.633  59.798  23.310  1.00  0.00    +0.137 HD
ATOM     35  H   UNL     1      53.057  60.248  21.786  1.00  0.00    +0.137 HD
ENDBRANCH  30  33
ENDBRANCH  29  30
ENDBRANCH  22  24
ENDBRANCH  21  22
ENDBRANCH   1  21
TORSDOF 11
ENDMDL
MODEL 3
REMARK VINA RESULT:    -9.289      4.311      9.183
REMARK INTER + INTRA:         -16.860
REMARK INTER:                 -15.338
REMARK INTRA:                  -1.521
REMARK UNBOUND:                -1.869
REMARK SMILES NS(=O)(=O)c1ccc(C(=O)OCC(=O)NCCC(c2ccccc2)c2ccccc2)cc1
REMARK SMILES IDX 12 1 13 2 15 3 14 4 16 6 17 7 18 8 19 9 22 10 21 11 23 12
REMARK SMILES IDX 20 13 24 14 25 15 26 16 30 17 27 18 29 19 28 20 11 21 9 22
REMARK SMILES IDX 10 23 8 24 7 25 31 26 6 27 32 28 5 29 2 30 3 31 4 32 1 33
REMARK H PARENT 15 5 1 34 1 35
ROOT
ATOM      1  C   UNL     1      48.726  56.435  17.589  1.00  0.00    +0.333 C 
ENDROOT
BRANCH   1   2
ATOM      2  C   UNL     1      48.163  55.492  16.523  1.00  0.00    +0.258 C 
ATOM      3  N   UNL     1      48.075  54.175  16.929  1.00  0.00    -0.353 N 
ATOM      4  O   UNL     1      47.811  55.878  15.411  1.00  0.00    -0.271 OA
ATOM      5  H   UNL     1      48.229  53.957  17.906  1.00  0.00    +0.163 HD
BRANCH   3   6
ATOM      6  C   UNL     1      47.531  53.143  16.073  1.00  0.00    +0.117 C 
BRANCH   6   7
ATOM      7  C   UNL     1      48.277  51.809  16.156  1.00  0.00    +0.034 C 
BRANCH   7   8
ATOM      8  C   UNL     1      47.909  50.838  17.315  1.00  0.00    +0.051 C 
BRANCH   8   9
ATOM      9  C   UNL     1      49.070  50.405  18.222  1.00  0.00    -0.040 A 
ATOM     10  C   UNL     1      51.209  49.728  19.949  1.00  0.00    +0.000 A 
ATOM     11  C   UNL     1      50.161  48.837  19.748  1.00  0.00    +0.000 A 
ATOM     12  C   UNL     1      51.186  50.968  19.319  1.00  0.00    +0.000 A 
ATOM     13  C   UNL     1      49.096  49.178  18.906  1.00  0.00    +0.004 A 
ATOM     14  C   UNL     1      50.126  51.303  18.472  1.00  0.00    +0.004 A 
ENDBRANCH   8   9
BRANCH   8  15
ATOM     15  C   UNL     1      46.953  49.744  16.830  1.00  0.00    -0.040 A 
ATOM     16  C   UNL     1      47.266  49.023  15.664  1.00  0.00    +0.004 A 
ATOM     17  C   UNL     1      45.773  49.409  17.514  1.00  0.00    +0.004 A 
ATOM     18  C   UNL     1      46.430  48.005  15.200  1.00  0.00    +0.000 A 
ATOM     19  C   UNL     1      44.936  48.391  17.050  1.00  0.00    +0.000 A 
ATOM     20  C   UNL     1      45.266  47.690  15.894  1.00  0.00    +0.000 A 
ENDBRANCH   8  15
ENDBRANCH   7   8
ENDBRANCH   6   7
ENDBRANCH   3   6
ENDBRANCH   1   2
BRANCH   1  21
ATOM     21  O   UNL     1      48.210  56.146  18.888  1.00  0.00    -0.452 OA
BRANCH  21  22
ATOM     22  C   UNL     1      48.975  55.287  19.605  1.00  0.00    +0.338 C 
ATOM     23  O   UNL     1      48.707  54.121  19.847  1.00  0.00    -0.246 OA
BRANCH  22  24
ATOM     24  C   UNL     1      50.202  55.969  20.097  1.00  0.00    +0.060 A 
ATOM     25  C   UNL     1      50.049  57.125  20.878  1.00  0.00    +0.017 A 
ATOM     26  C   UNL     1      51.489  55.484  19.821  1.00  0.00    +0.017 A 
ATOM     27  C   UNL     1      51.171  57.794  21.374  1.00  0.00    +0.022 A 
ATOM     28  C   UNL     1      52.615  56.148  20.317  1.00  0.00    +0.022 A 
ATOM     29  C   UNL     1      52.448  57.295  21.098  1.00  0.00    +0.082 A 
BRANCH  29  30
ATOM     30  S   UNL     1      53.865  58.151  21.735  1.00  0.00    +0.238 S 
ATOM     31  O   UNL     1      54.455  57.347  22.781  1.00  0.00    -0.207 OA
ATOM     32  O   UNL     1      54.627  58.658  20.619  1.00  0.00    -0.207 OA
BRANCH  30  33
ATOM     33  N   UNL     1      53.149  59.456  22.518  1.00  0.00    -0.225 NA
ATOM     34  H   UNL     1      53.070  59.332  23.528  1.00  0.00    +0.137 HD
ATOM     35  H   UNL     1      53.661  60.307  22.279  1.00  0.00    +0.137 HD
ENDBRANCH  30  33
ENDBRANCH  29  30
ENDBRANCH  22  24
ENDBRANCH  21  22
ENDBRANCH   1  21
TORSDOF 11
ENDMDL
MODEL 4
REMARK VINA RESULT:    -8.806      2.215      3.709
REMARK INTER + INTRA:         -16.080
REMARK INTER:                 -14.818
REMARK INTRA:                  -1.262
REMARK UNBOUND:                -1.869
REMARK SMILES NS(=O)(=O)c1ccc(C(=O)OCC(=O)NCCC(c2ccccc2)c2ccccc2)cc1
REMARK SMILES IDX 12 1 13 2 15 3 14 4 16 6 17 7 18 8 19 9 22 10 21 11 23 12
REMARK SMILES IDX 20 13 24 14 25 15 26 16 30 17 27 18 29 19 28 20 11 21 9 22
REMARK SMILES IDX 10 23 8 24 7 25 31 26 6 27 32 28 5 29 2 30 3 31 4 32 1 33
REMARK H PARENT 15 5 1 34 1 35
ROOT
ATOM      1  C   UNL     1      47.782  52.483  16.169  1.00  0.00    +0.333 C 
ENDROOT
BRANCH   1   2
ATOM      2  C   UNL     1      48.261  53.772  16.842  1.00  0.00    +0.258 C 
ATOM      3  N   UNL     1      48.824  53.578  18.088  1.00  0.00    -0.353 N 
ATOM      4  O   UNL     1      48.163  54.876  16.311  1.00  0.00    -0.271 OA
ATOM      5  H   UNL     1      49.019  52.632  18.391  1.00  0.00    +0.163 HD
BRANCH   3   6
ATOM      6  C   UNL     1      49.370  54.673  18.861  1.00  0.00    +0.117 C 
BRANCH   6   7
ATOM      7  C   UNL     1      48.411  55.226  19.918  1.00  0.00    +0.034 C 
BRANCH   7   8
ATOM      8  C   UNL     1      48.673  56.661  20.462  1.00  0.00    +0.051 C 
BRANCH   8   9
ATOM      9  C   UNL     1      48.068  57.810  19.643  1.00  0.00    -0.040 A 
ATOM     10  C   UNL     1      46.887  59.839  18.062  1.00  0.00    +0.000 A 
ATOM     11  C   UNL     1      46.975  59.987  19.442  1.00  0.00    +0.000 A 
ATOM     12  C   UNL     1      47.356  58.675  17.465  1.00  0.00    +0.000 A 
ATOM     13  C   UNL     1      47.545  58.977  20.225  1.00  0.00    +0.004 A 
ATOM     14  C   UNL     1      47.933  57.671  18.248  1.00  0.00    +0.004 A 
ENDBRANCH   8   9
BRANCH   8  15
ATOM     15  C   UNL     1      50.127  56.815  20.920  1.00  0.00    -0.040 A 
ATOM     16  C   UNL     1      50.613  55.994  21.954  1.00  0.00    +0.004 A 
ATOM     17  C   UNL     1      51.014  57.735  20.337  1.00  0.00    +0.004 A 
ATOM     18  C   UNL     1      51.937  56.091  22.387  1.00  0.00    +0.000 A 
ATOM     19  C   UNL     1      52.339  57.831  20.770  1.00  0.00    +0.000 A 
ATOM     20  C   UNL     1      52.798  57.009  21.795  1.00  0.00    +0.000 A 
ENDBRANCH   8  15
ENDBRANCH   7   8
ENDBRANCH   6   7
ENDBRANCH   3   6
ENDBRANCH   1   2
BRANCH   1  21
ATOM     21  O   UNL     1      48.734  51.426  16.293  1.00  0.00    -0.452 OA
BRANCH  21  22
ATOM     22  C   UNL     1      48.389  50.478  17.197  1.00  0.00    +0.338 C 
ATOM     23  O   UNL     1      48.825  50.379  18.333  1.00  0.00    -0.246 OA
BRANCH  22  24
ATOM     24  C   UNL     1      47.405  49.530  16.608  1.00  0.00    +0.060 A 
ATOM     25  C   UNL     1      46.190  49.335  17.282  1.00  0.00    +0.017 A 
ATOM     26  C   UNL     1      47.649  48.850  15.405  1.00  0.00    +0.017 A 
ATOM     27  C   UNL     1      45.229  48.464  16.763  1.00  0.00    +0.022 A 
ATOM     28  C   UNL     1      46.689  47.980  14.880  1.00  0.00    +0.022 A 
ATOM     29  C   UNL     1      45.480  47.799  15.559  1.00  0.00    +0.082 A 
BRANCH  29  30
ATOM     30  S   UNL     1      44.251  46.698  14.907  1.00  0.00    +0.238 S 
ATOM     31  O   UNL     1      42.993  47.405  14.835  1.00  0.00    -0.207 OA
ATOM     32  O   UNL     1      44.820  46.003  13.778  1.00  0.00    -0.207 OA
BRANCH  30  33
ATOM     33  N   UNL     1      44.079  45.599  16.169  1.00  0.00    -0.225 NA
ATOM     34  H   UNL     1      44.816  45.665  16.871  1.00  0.00    +0.137 HD
ATOM     35  H   UNL     1      43.151  45.711  16.581  1.00  0.00    +0.137 HD
ENDBRANCH  30  33
ENDBRANCH  29  30
ENDBRANCH  22  24
ENDBRANCH  21  22
ENDBRANCH   1  21
TORSDOF 11
ENDMDL
MODEL 5
REMARK VINA RESULT:    -8.694      3.383      5.833
REMARK INTER + INTRA:         -15.899
REMARK INTER:                 -14.476
REMARK INTRA:                  -1.422
REMARK UNBOUND:                -1.869
REMARK SMILES NS(=O)(=O)c1ccc(C(=O)OCC(=O)NCCC(c2ccccc2)c2ccccc2)cc1
REMARK SMILES IDX 12 1 13 2 15 3 14 4 16 6 17 7 18 8 19 9 22 10 21 11 23 12
REMARK SMILES IDX 20 13 24 14 25 15 26 16 30 17 27 18 29 19 28 20 11 21 9 22
REMARK SMILES IDX 10 23 8 24 7 25 31 26 6 27 32 28 5 29 2 30 3 31 4 32 1 33
REMARK H PARENT 15 5 1 34 1 35
ROOT
ATOM      1  C   UNL     1      51.361  55.526  21.343  1.00  0.00    +0.333 C 
ENDROOT
BRANCH   1   2
ATOM      2  C   UNL     1      50.747  56.922  21.478  1.00  0.00    +0.258 C 
ATOM      3  N   UNL     1      49.383  56.958  21.267  1.00  0.00    -0.353 N 
ATOM      4  O   UNL     1      51.411  57.917  21.761  1.00  0.00    -0.271 OA
ATOM      5  H   UNL     1      48.879  56.081  21.199  1.00  0.00    +0.163 HD
BRANCH   3   6
ATOM      6  C   UNL     1      48.619  58.180  21.389  1.00  0.00    +0.117 C 
BRANCH   6   7
ATOM      7  C   UNL     1      47.401  58.248  20.464  1.00  0.00    +0.034 C 
BRANCH   7   8
ATOM      8  C   UNL     1      47.485  59.173  19.214  1.00  0.00    +0.051 C 
BRANCH   8   9
ATOM      9  C   UNL     1      46.628  60.445  19.262  1.00  0.00    -0.040 A 
ATOM     10  C   UNL     1      44.958  62.725  19.421  1.00  0.00    +0.000 A 
ATOM     11  C   UNL     1      46.330  62.848  19.604  1.00  0.00    +0.000 A 
ATOM     12  C   UNL     1      44.405  61.471  19.189  1.00  0.00    +0.000 A 
ATOM     13  C   UNL     1      47.154  61.718  19.540  1.00  0.00    +0.004 A 
ATOM     14  C   UNL     1      45.230  60.345  19.117  1.00  0.00    +0.004 A 
ENDBRANCH   8   9
BRANCH   8  15
ATOM     15  C   UNL     1      47.450  58.351  17.922  1.00  0.00    -0.040 A 
ATOM     16  C   UNL     1      48.172  57.146  17.853  1.00  0.00    +0.004 A 
ATOM     17  C   UNL     1      46.706  58.739  16.796  1.00  0.00    +0.004 A 
ATOM     18  C   UNL     1      48.151  56.359  16.700  1.00  0.00    +0.000 A 
ATOM     19  C   UNL     1      46.684  57.950  15.642  1.00  0.00    +0.000 A 
ATOM     20  C   UNL     1      47.406  56.762  15.596  1.00  0.00    +0.000 A 
ENDBRANCH   8  15
ENDBRANCH   7   8
ENDBRANCH   6   7
ENDBRANCH   3   6
ENDBRANCH   1   2
BRANCH   1  21
ATOM     21  O   UNL     1      50.514  54.634  20.619  1.00  0.00    -0.452 OA
BRANCH  21  22
ATOM     22  C   UNL     1      50.982  54.308  19.390  1.00  0.00    +0.338 C 
ATOM     23  O   UNL     1      51.874  54.883  18.787  1.00  0.00    -0.246 OA
BRANCH  22  24
ATOM     24  C   UNL     1      50.235  53.145  18.840  1.00  0.00    +0.060 A 
ATOM     25  C   UNL     1      50.655  51.856  19.204  1.00  0.00    +0.017 A 
ATOM     26  C   UNL     1      49.127  53.300  17.993  1.00  0.00    +0.017 A 
ATOM     27  C   UNL     1      49.979  50.733  18.723  1.00  0.00    +0.022 A 
ATOM     28  C   UNL     1      48.444  52.179  17.513  1.00  0.00    +0.022 A 
ATOM     29  C   UNL     1      48.870  50.902  17.887  1.00  0.00    +0.082 A 
BRANCH  29  30
ATOM     30  S   UNL     1      48.017  49.468  17.285  1.00  0.00    +0.238 S 
ATOM     31  O   UNL     1      47.479  48.746  18.415  1.00  0.00    -0.207 OA
ATOM     32  O   UNL     1      47.209  49.863  16.156  1.00  0.00    -0.207 OA
BRANCH  30  33
ATOM     33  N   UNL     1      49.292  48.529  16.716  1.00  0.00    -0.225 NA
ATOM     34  H   UNL     1      48.994  47.754  16.124  1.00  0.00    +0.137 HD
ATOM     35  H   UNL     1      49.961  49.135  16.238  1.00  0.00    +0.137 HD
ENDBRANCH  30  33
ENDBRANCH  29  30
ENDBRANCH  22  24
ENDBRANCH  21  22
ENDBRANCH   1  21
TORSDOF 11
ENDMDL
