MODEL 1
REMARK VINA RESULT:    -6.608      0.000      0.000
REMARK INTER + INTRA:          -9.255
REMARK INTER:                  -8.540
REMARK INTRA:                  -0.716
REMARK UNBOUND:                -0.716
REMARK SMILES O=C(COC(=O)[C@@H]1CC=CCC1)c1ccc[nH]1
REMARK SMILES IDX 3 1 2 2 1 3 13 4 15 5 14 6 16 7 17 8 4 10 5 11 6 12 7 13
REMARK SMILES IDX 12 14 8 15 11 16 9 17 10 18
REMARK H PARENT 17 9
ROOT
ATOM      1  C   UNL     1      52.745  52.835  18.682  1.00  0.00    +0.315 C 
ENDROOT
BRANCH   1   2
ATOM      2  C   UNL     1      52.379  51.436  19.198  1.00  0.00    +0.216 C 
ATOM      3  O   UNL     1      53.068  50.883  20.055  1.00  0.00    -0.289 OA
BRANCH   2   4
ATOM      4  C   UNL     1      51.220  50.786  18.598  1.00  0.00    +0.085 A 
ATOM      5  C   UNL     1      49.298  49.613  18.296  1.00  0.00    +0.020 A 
ATOM      6  C   UNL     1      50.223  50.082  19.256  1.00  0.00    +0.031 A 
ATOM      7  C   UNL     1      49.740  50.043  17.068  1.00  0.00    +0.083 A 
ATOM      8  N   UNL     1      50.895  50.755  17.257  1.00  0.00    -0.359 N 
ATOM      9  H   UNL     1      51.413  51.198  16.510  1.00  0.00    +0.166 HD
ENDBRANCH   2   4
ENDBRANCH   1   2
BRANCH   1  10
ATOM     10  O   UNL     1      51.604  53.636  18.378  1.00  0.00    -0.457 OA
BRANCH  10  11
ATOM     11  C   UNL     1      51.513  54.773  19.128  1.00  0.00    +0.309 C 
ATOM     12  O   UNL     1      52.276  55.723  19.013  1.00  0.00    -0.252 OA
BRANCH  11  13
ATOM     13  C   UNL     1      50.308  54.711  20.058  1.00  0.00    +0.103 C 
ATOM     14  C   UNL     1      50.449  53.619  21.130  1.00  0.00    +0.020 C 
ATOM     15  C   UNL     1      50.041  56.075  20.719  1.00  0.00    +0.042 C 
ATOM     16  C   UNL     1      51.568  53.931  22.127  1.00  0.00    +0.028 C 
ATOM     17  C   UNL     1      50.879  56.326  21.942  1.00  0.00    -0.030 C 
ATOM     18  C   UNL     1      51.580  55.364  22.562  1.00  0.00    -0.031 C 
ENDBRANCH  11  13
ENDBRANCH  10  11
ENDBRANCH   1  10
TORSDOF 5
ENDMDL
MODEL 2
REMARK VINA RESULT:    -6.582      1.634      2.251
REMARK INTER + INTRA:          -9.221
REMARK INTER:                  -8.639
REMARK INTRA:                  -0.582
REMARK UNBOUND:                -0.716
REMARK SMILES O=C(COC(=O)[C@@H]1CC=CCC1)c1ccc[nH]1
REMARK SMILES IDX 3 1 2 2 1 3 13 4 15 5 14 6 16 7 17 8 4 10 5 11 6 12 7 13
REMARK SMILES IDX 12 14 8 15 11 16 9 17 10 18
REMARK H PARENT 17 9
ROOT
ATOM      1  C   UNL     1      51.780  52.010  21.521  1.00  0.00    +0.315 C 
ENDROOT
BRANCH   1   2
ATOM      2  C   UNL     1      52.018  50.844  20.552  1.00  0.00    +0.216 C 
ATOM      3  O   UNL     1      53.139  50.349  20.429  1.00  0.00    -0.289 OA
BRANCH   2   4
ATOM      4  C   UNL     1      50.880  50.389  19.763  1.00  0.00    +0.085 A 
ATOM      5  C   UNL     1      49.188  49.137  18.906  1.00  0.00    +0.020 A 
ATOM      6  C   UNL     1      50.231  49.167  19.861  1.00  0.00    +0.031 A 
ATOM      7  C   UNL     1      49.213  50.341  18.245  1.00  0.00    +0.083 A 
ATOM      8  N   UNL     1      50.230  51.094  18.771  1.00  0.00    -0.359 N 
ATOM      9  H   UNL     1      50.449  52.034  18.470  1.00  0.00    +0.166 HD
ENDBRANCH   2   4
ENDBRANCH   1   2
BRANCH   1  10
ATOM     10  O   UNL     1      51.370  53.209  20.864  1.00  0.00    -0.457 OA
BRANCH  10  11
ATOM     11  C   UNL     1      51.622  54.343  21.580  1.00  0.00    +0.309 C 
ATOM     12  O   UNL     1      51.789  54.356  22.792  1.00  0.00    -0.252 OA
BRANCH  11  13
ATOM     13  C   UNL     1      51.728  55.551  20.657  1.00  0.00    +0.103 C 
ATOM     14  C   UNL     1      50.598  55.598  19.617  1.00  0.00    +0.020 C 
ATOM     15  C   UNL     1      51.769  56.864  21.458  1.00  0.00    +0.042 C 
ATOM     16  C   UNL     1      49.231  55.845  20.261  1.00  0.00    +0.028 C 
ATOM     17  C   UNL     1      50.409  57.375  21.847  1.00  0.00    -0.030 C 
ATOM     18  C   UNL     1      49.269  56.902  21.322  1.00  0.00    -0.031 C 
ENDBRANCH  11  13
ENDBRANCH  10  11
ENDBRANCH   1  10
TORSDOF 5
ENDMDL
MODEL 3
REMARK VINA RESULT:    -6.242      1.971      2.523
REMARK INTER + INTRA:          -8.782
REMARK INTER:                  -8.532
REMARK INTRA:                  -0.250
REMARK UNBOUND:                -0.716
REMARK SMILES O=C(COC(=O)[C@@H]1CC=CCC1)c1ccc[nH]1
REMARK SMILES IDX 3 1 2 2 1 3 13 4 15 5 14 6 16 7 17 8 4 10 5 11 6 12 7 13
REMARK SMILES IDX 12 14 8 15 11 16 9 17 10 18
REMARK H PARENT 17 9
ROOT
ATOM      1  C   UNL     1      49.615  52.203  18.108  1.00  0.00    +0.315 C 
ENDROOT
BRANCH   1   2
ATOM      2  C   UNL     1      49.496  50.811  17.472  1.00  0.00    +0.216 C 
ATOM      3  O   UNL     1      50.391  50.372  16.748  1.00  0.00    -0.289 OA
BRANCH   2   4
ATOM      4  C   UNL     1      48.269  50.065  17.725  1.00  0.00    +0.085 A 
ATOM      5  C   UNL     1      46.117  49.337  17.679  1.00  0.00    +0.020 A 
ATOM      6  C   UNL     1      47.027  50.279  17.146  1.00  0.00    +0.031 A 
ATOM      7  C   UNL     1      46.818  48.559  18.569  1.00  0.00    +0.083 A 
ATOM      8  N   UNL     1      48.116  48.998  18.587  1.00  0.00    -0.359 N 
ATOM      9  H   UNL     1      48.844  48.579  19.148  1.00  0.00    +0.166 HD
ENDBRANCH   2   4
ENDBRANCH   1   2
BRANCH   1  10
ATOM     10  O   UNL     1      50.966  52.590  18.356  1.00  0.00    -0.457 OA
BRANCH  10  11
ATOM     11  C   UNL     1      51.085  53.757  19.055  1.00  0.00    +0.309 C 
ATOM     12  O   UNL     1      51.892  54.634  18.776  1.00  0.00    -0.252 OA
BRANCH  11  13
ATOM     13  C   UNL     1      50.044  53.830  20.164  1.00  0.00    +0.103 C 
ATOM     14  C   UNL     1      50.479  53.075  21.430  1.00  0.00    +0.020 C 
ATOM     15  C   UNL     1      49.696  55.289  20.509  1.00  0.00    +0.042 C 
ATOM     16  C   UNL     1      51.677  53.737  22.115  1.00  0.00    +0.028 C 
ATOM     17  C   UNL     1      50.658  55.927  21.473  1.00  0.00    -0.030 C 
ATOM     18  C   UNL     1      51.561  55.230  22.179  1.00  0.00    -0.031 C 
ENDBRANCH  11  13
ENDBRANCH  10  11
ENDBRANCH   1  10
TORSDOF 5
ENDMDL
MODEL 4
REMARK VINA RESULT:    -5.972      2.512      6.014
REMARK INTER + INTRA:          -8.433
REMARK INTER:                  -8.021
REMARK INTRA:                  -0.411
REMARK UNBOUND:                -0.716
REMARK SMILES O=C(COC(=O)[C@@H]1CC=CCC1)c1ccc[nH]1
REMARK SMILES IDX 3 1 2 2 1 3 13 4 15 5 14 6 16 7 17 8 4 10 5 11 6 12 7 13
REMARK SMILES IDX 12 14 8 15 11 16 9 17 10 18
REMARK H PARENT 17 9
ROOT
ATOM      1  C   UNL     1      50.287  53.856  20.784  1.00  0.00    +0.315 C 
ENDROOT
BRANCH   1   2
ATOM      2  C   UNL     1      50.931  55.222  21.056  1.00  0.00    +0.216 C 
ATOM      3  O   UNL     1      52.155  55.334  21.138  1.00  0.00    -0.289 OA
BRANCH   2   4
ATOM      4  C   UNL     1      50.035  56.354  21.257  1.00  0.00    +0.085 A 
ATOM      5  C   UNL     1      48.305  57.817  21.080  1.00  0.00    +0.020 A 
ATOM      6  C   UNL     1      48.854  56.615  20.578  1.00  0.00    +0.031 A 
ATOM      7  C   UNL     1      49.155  58.268  22.061  1.00  0.00    +0.083 A 
ATOM      8  N   UNL     1      50.192  57.378  22.167  1.00  0.00    -0.359 N 
ATOM      9  H   UNL     1      50.947  57.470  22.833  1.00  0.00    +0.166 HD
ENDBRANCH   2   4
ENDBRANCH   1   2
BRANCH   1  10
ATOM     10  O   UNL     1      51.036  53.056  19.869  1.00  0.00    -0.457 OA
BRANCH  10  11
ATOM     11  C   UNL     1      50.308  52.608  18.805  1.00  0.00    +0.309 C 
ATOM     12  O   UNL     1      49.280  53.144  18.414  1.00  0.00    -0.252 OA
BRANCH  11  13
ATOM     13  C   UNL     1      50.989  51.412  18.151  1.00  0.00    +0.103 C 
ATOM     14  C   UNL     1      51.541  50.415  19.180  1.00  0.00    +0.020 C 
ATOM     15  C   UNL     1      50.041  50.696  17.172  1.00  0.00    +0.042 C 
ATOM     16  C   UNL     1      50.427  49.719  19.967  1.00  0.00    +0.028 C 
ATOM     17  C   UNL     1      49.118  49.713  17.838  1.00  0.00    -0.030 C 
ATOM     18  C   UNL     1      49.282  49.290  19.100  1.00  0.00    -0.031 C 
ENDBRANCH  11  13
ENDBRANCH  10  11
ENDBRANCH   1  10
TORSDOF 5
ENDMDL
MODEL 5
REMARK VINA RESULT:    -5.779      2.775      6.531
REMARK INTER + INTRA:          -8.183
REMARK INTER:                  -7.747
REMARK INTRA:                  -0.437
REMARK UNBOUND:                -0.716
REMARK SMILES O=C(COC(=O)[C@@H]1CC=CCC1)c1ccc[nH]1
REMARK SMILES IDX 3 1 2 2 1 3 13 4 15 5 14 6 16 7 17 8 4 10 5 11 6 12 7 13
REMARK SMILES IDX 12 14 8 15 11 16 9 17 10 18
REMARK H PARENT 17 9
ROOT
ATOM      1  C   UNL     1      49.843  52.100  18.147  1.00  0.00    +0.315 C 
ENDROOT
BRANCH   1   2
ATOM      2  C   UNL     1      50.421  51.804  19.538  1.00  0.00    +0.216 C 
ATOM      3  O   UNL     1      50.593  50.644  19.913  1.00  0.00    -0.289 OA
BRANCH   2   4
ATOM      4  C   UNL     1      50.708  52.946  20.398  1.00  0.00    +0.085 A 
ATOM      5  C   UNL     1      50.680  55.002  21.365  1.00  0.00    +0.020 A 
ATOM      6  C   UNL     1      50.096  54.190  20.366  1.00  0.00    +0.031 A 
ATOM      7  C   UNL     1      51.635  54.240  21.995  1.00  0.00    +0.083 A 
ATOM      8  N   UNL     1      51.642  53.000  21.412  1.00  0.00    -0.359 N 
ATOM      9  H   UNL     1      52.243  52.242  21.707  1.00  0.00    +0.166 HD
ENDBRANCH   2   4
ENDBRANCH   1   2
BRANCH   1  10
ATOM     10  O   UNL     1      49.350  50.935  17.487  1.00  0.00    -0.457 OA
BRANCH  10  11
ATOM     11  C   UNL     1      47.988  50.877  17.414  1.00  0.00    +0.309 C 
ATOM     12  O   UNL     1      47.301  51.740  16.884  1.00  0.00    -0.252 OA
BRANCH  11  13
ATOM     13  C   UNL     1      47.471  49.577  18.017  1.00  0.00    +0.103 C 
ATOM     14  C   UNL     1      46.127  49.142  17.412  1.00  0.00    +0.020 C 
ATOM     15  C   UNL     1      48.506  48.446  17.879  1.00  0.00    +0.042 C 
ATOM     16  C   UNL     1      46.257  48.747  15.938  1.00  0.00    +0.028 C 
ATOM     17  C   UNL     1      48.470  47.755  16.544  1.00  0.00    -0.030 C 
ATOM     18  C   UNL     1      47.467  47.907  15.665  1.00  0.00    -0.031 C 
ENDBRANCH  11  13
ENDBRANCH  10  11
ENDBRANCH   1  10
TORSDOF 5
ENDMDL
