MODEL 1
REMARK VINA RESULT:    -8.579      0.000      0.000
REMARK INTER + INTRA:         -12.397
REMARK INTER:                 -11.338
REMARK INTRA:                  -1.060
REMARK UNBOUND:                -1.060
REMARK SMILES CC[C@H](NC(=O)c1ccc(N)c([N+](=O)[O-])c1)c1ccc(Cl)cc1
REMARK SMILES IDX 4 1 5 2 6 3 3 5 2 6 1 7 17 8 18 9 23 10 19 11 22 12 20 13
REMARK SMILES IDX 21 14 7 15 8 16 16 17 9 18 12 19 10 20 13 21 14 22 15 23
REMARK SMILES IDX 11 24
REMARK H PARENT 4 4 11 25 11 26
ROOT
ATOM      1  N   UNL     1      49.421  52.244  17.809  1.00  0.00    -0.345 N 
ATOM      2  C   UNL     1      48.875  53.507  17.710  1.00  0.00    +0.252 C 
ATOM      3  O   UNL     1      48.155  53.873  16.790  1.00  0.00    -0.269 OA
ATOM      4  H   UNL     1      49.705  51.938  18.730  1.00  0.00    +0.164 HD
ENDROOT
BRANCH   1   5
ATOM      5  C   UNL     1      49.094  51.199  16.846  1.00  0.00    +0.112 C 
BRANCH   5   6
ATOM      6  C   UNL     1      50.333  50.464  16.289  1.00  0.00    +0.026 C 
ATOM      7  C   UNL     1      50.140  49.788  14.936  1.00  0.00    +0.006 C 
ENDBRANCH   5   6
BRANCH   5   8
ATOM      8  C   UNL     1      48.056  50.239  17.414  1.00  0.00    -0.026 A 
ATOM      9  C   UNL     1      46.725  50.226  16.961  1.00  0.00    +0.007 A 
ATOM     10  C   UNL     1      48.426  49.342  18.430  1.00  0.00    +0.007 A 
ATOM     11  C   UNL     1      45.794  49.336  17.503  1.00  0.00    +0.021 A 
ATOM     12  C   UNL     1      47.495  48.452  18.973  1.00  0.00    +0.021 A 
ATOM     13  C   UNL     1      46.184  48.452  18.506  1.00  0.00    +0.041 A 
ATOM     14 Cl   UNL     1      45.037  47.358  19.174  1.00  0.00    -0.084 Cl
ENDBRANCH   5   8
ENDBRANCH   1   5
BRANCH   2  15
ATOM     15  C   UNL     1      49.170  54.441  18.829  1.00  0.00    +0.046 A 
ATOM     16  C   UNL     1      48.491  55.654  18.977  1.00  0.00    +0.016 A 
ATOM     17  C   UNL     1      50.144  54.075  19.762  1.00  0.00    +0.101 A 
ATOM     18  C   UNL     1      48.790  56.502  20.052  1.00  0.00    +0.033 A 
ATOM     19  C   UNL     1      50.435  54.934  20.833  1.00  0.00    +0.292 A 
ATOM     20  C   UNL     1      49.736  56.143  21.025  1.00  0.00    +0.110 A 
BRANCH  19  21
ATOM     21  N   UNL     1      51.482  54.523  21.768  1.00  0.00    +0.064 N 
ATOM     22  O   UNL     1      52.301  55.381  22.134  1.00  0.00    -0.258 OA
ATOM     23  O   UNL     1      51.477  53.343  22.149  1.00  0.00    -0.258 OA
ENDBRANCH  19  21
BRANCH  20  24
ATOM     24  N   UNL     1      50.081  57.106  21.988  1.00  0.00    -0.393 N 
ATOM     25  H   UNL     1      49.970  58.071  21.661  1.00  0.00    +0.156 HD
ATOM     26  H   UNL     1      50.989  56.969  22.422  1.00  0.00    +0.156 HD
ENDBRANCH  20  24
ENDBRANCH   2  15
TORSDOF 6
ENDMDL
MODEL 2
REMARK VINA RESULT:    -8.443      2.133      2.960
REMARK INTER + INTRA:         -12.217
REMARK INTER:                 -11.274
REMARK INTRA:                  -0.943
REMARK UNBOUND:                -1.060
REMARK SMILES CC[C@H](NC(=O)c1ccc(N)c([N+](=O)[O-])c1)c1ccc(Cl)cc1
REMARK SMILES IDX 4 1 5 2 6 3 3 5 2 6 1 7 17 8 18 9 23 10 19 11 22 12 20 13
REMARK SMILES IDX 21 14 7 15 8 16 16 17 9 18 12 19 10 20 13 21 14 22 15 23
REMARK SMILES IDX 11 24
REMARK H PARENT 4 4 11 25 11 26
ROOT
ATOM      1  N   UNL     1      50.560  52.601  19.400  1.00  0.00    -0.345 N 
ATOM      2  C   UNL     1      51.358  53.714  19.229  1.00  0.00    +0.252 C 
ATOM      3  O   UNL     1      52.299  53.771  18.449  1.00  0.00    -0.269 OA
ATOM      4  H   UNL     1      49.641  52.751  19.792  1.00  0.00    +0.164 HD
ENDROOT
BRANCH   1   5
ATOM      5  C   UNL     1      50.731  51.413  18.572  1.00  0.00    +0.112 C 
BRANCH   5   6
ATOM      6  C   UNL     1      51.724  50.387  19.161  1.00  0.00    +0.026 C 
ATOM      7  C   UNL     1      52.021  50.540  20.648  1.00  0.00    +0.006 C 
ENDBRANCH   5   6
BRANCH   5   8
ATOM      8  C   UNL     1      49.384  50.787  18.231  1.00  0.00    -0.026 A 
ATOM      9  C   UNL     1      49.034  49.493  18.653  1.00  0.00    +0.007 A 
ATOM     10  C   UNL     1      48.459  51.513  17.462  1.00  0.00    +0.007 A 
ATOM     11  C   UNL     1      47.792  48.944  18.321  1.00  0.00    +0.021 A 
ATOM     12  C   UNL     1      47.217  50.965  17.130  1.00  0.00    +0.021 A 
ATOM     13  C   UNL     1      46.889  49.683  17.562  1.00  0.00    +0.041 A 
ATOM     14 Cl   UNL     1      45.361  49.007  17.154  1.00  0.00    -0.084 Cl
ENDBRANCH   5   8
ENDBRANCH   1   5
BRANCH   2  15
ATOM     15  C   UNL     1      50.995  54.912  20.033  1.00  0.00    +0.046 A 
ATOM     16  C   UNL     1      49.664  55.241  20.309  1.00  0.00    +0.016 A 
ATOM     17  C   UNL     1      52.024  55.712  20.537  1.00  0.00    +0.101 A 
ATOM     18  C   UNL     1      49.364  56.371  21.079  1.00  0.00    +0.033 A 
ATOM     19  C   UNL     1      51.709  56.842  21.307  1.00  0.00    +0.292 A 
ATOM     20  C   UNL     1      50.377  57.171  21.631  1.00  0.00    +0.110 A 
BRANCH  19  21
ATOM     21  N   UNL     1      52.818  57.666  21.789  1.00  0.00    +0.064 N 
ATOM     22  O   UNL     1      53.789  57.086  22.299  1.00  0.00    -0.258 OA
ATOM     23  O   UNL     1      52.724  58.893  21.644  1.00  0.00    -0.258 OA
ENDBRANCH  19  21
BRANCH  20  24
ATOM     24  N   UNL     1      49.995  58.363  22.269  1.00  0.00    -0.393 N 
ATOM     25  H   UNL     1      49.137  58.275  22.822  1.00  0.00    +0.156 HD
ATOM     26  H   UNL     1      49.959  59.179  21.665  1.00  0.00    +0.156 HD
ENDBRANCH  20  24
ENDBRANCH   2  15
TORSDOF 6
ENDMDL
MODEL 3
REMARK VINA RESULT:    -8.252      2.363      3.124
REMARK INTER + INTRA:         -11.965
REMARK INTER:                 -10.964
REMARK INTRA:                  -1.000
REMARK UNBOUND:                -1.060
REMARK SMILES CC[C@H](NC(=O)c1ccc(N)c([N+](=O)[O-])c1)c1ccc(Cl)cc1
REMARK SMILES IDX 4 1 5 2 6 3 3 5 2 6 1 7 17 8 18 9 23 10 19 11 22 12 20 13
REMARK SMILES IDX 21 14 7 15 8 16 16 17 9 18 12 19 10 20 13 21 14 22 15 23
REMARK SMILES IDX 11 24
REMARK H PARENT 4 4 11 25 11 26
ROOT
ATOM      1  N   UNL     1      50.424  51.983  19.772  1.00  0.00    -0.345 N 
ATOM      2  C   UNL     1      51.081  53.123  19.357  1.00  0.00    +0.252 C 
ATOM      3  O   UNL     1      51.848  53.166  18.404  1.00  0.00    -0.269 OA
ATOM      4  H   UNL     1      49.587  52.110  20.324  1.00  0.00    +0.164 HD
ENDROOT
BRANCH   1   5
ATOM      5  C   UNL     1      50.529  50.735  19.026  1.00  0.00    +0.112 C 
BRANCH   5   6
ATOM      6  C   UNL     1      51.261  49.614  19.796  1.00  0.00    +0.026 C 
ATOM      7  C   UNL     1      52.783  49.703  19.795  1.00  0.00    +0.006 C 
ENDBRANCH   5   6
BRANCH   5   8
ATOM      8  C   UNL     1      49.165  50.290  18.511  1.00  0.00    -0.026 A 
ATOM      9  C   UNL     1      48.396  51.088  17.648  1.00  0.00    +0.007 A 
ATOM     10  C   UNL     1      48.645  49.049  18.916  1.00  0.00    +0.007 A 
ATOM     11  C   UNL     1      47.147  50.655  17.195  1.00  0.00    +0.021 A 
ATOM     12  C   UNL     1      47.396  48.615  18.464  1.00  0.00    +0.021 A 
ATOM     13  C   UNL     1      46.653  49.419  17.604  1.00  0.00    +0.041 A 
ATOM     14 Cl   UNL     1      45.115  48.886  17.049  1.00  0.00    -0.084 Cl
ENDBRANCH   5   8
ENDBRANCH   1   5
BRANCH   2  15
ATOM     15  C   UNL     1      50.783  54.367  20.117  1.00  0.00    +0.046 A 
ATOM     16  C   UNL     1      51.559  54.769  21.208  1.00  0.00    +0.016 A 
ATOM     17  C   UNL     1      49.705  55.156  19.707  1.00  0.00    +0.101 A 
ATOM     18  C   UNL     1      51.253  55.953  21.891  1.00  0.00    +0.033 A 
ATOM     19  C   UNL     1      49.409  56.340  20.401  1.00  0.00    +0.292 A 
ATOM     20  C   UNL     1      50.201  56.785  21.478  1.00  0.00    +0.110 A 
BRANCH  19  21
ATOM     21  N   UNL     1      48.254  57.118  19.953  1.00  0.00    +0.064 N 
ATOM     22  O   UNL     1      47.502  57.588  20.821  1.00  0.00    -0.258 OA
ATOM     23  O   UNL     1      48.106  57.271  18.732  1.00  0.00    -0.258 OA
ENDBRANCH  19  21
BRANCH  20  24
ATOM     24  N   UNL     1      49.869  57.877  22.298  1.00  0.00    -0.393 N 
ATOM     25  H   UNL     1      50.482  58.688  22.168  1.00  0.00    +0.156 HD
ATOM     26  H   UNL     1      49.760  57.654  23.283  1.00  0.00    +0.156 HD
ENDBRANCH  20  24
ENDBRANCH   2  15
TORSDOF 6
ENDMDL
MODEL 4
REMARK VINA RESULT:    -8.031      3.489      7.486
REMARK INTER + INTRA:         -11.673
REMARK INTER:                 -10.730
REMARK INTRA:                  -0.943
REMARK UNBOUND:                -1.060
REMARK SMILES CC[C@H](NC(=O)c1ccc(N)c([N+](=O)[O-])c1)c1ccc(Cl)cc1
REMARK SMILES IDX 4 1 5 2 6 3 3 5 2 6 1 7 17 8 18 9 23 10 19 11 22 12 20 13
REMARK SMILES IDX 21 14 7 15 8 16 16 17 9 18 12 19 10 20 13 21 14 22 15 23
REMARK SMILES IDX 11 24
REMARK H PARENT 4 4 11 25 11 26
ROOT
ATOM      1  N   UNL     1      50.514  54.101  20.746  1.00  0.00    -0.345 N 
ATOM      2  C   UNL     1      51.104  52.940  21.202  1.00  0.00    +0.252 C 
ATOM      3  O   UNL     1      51.871  52.886  22.153  1.00  0.00    -0.269 OA
ATOM      4  H   UNL     1      49.669  54.004  20.202  1.00  0.00    +0.164 HD
ENDROOT
BRANCH   1   5
ATOM      5  C   UNL     1      50.699  55.368  21.445  1.00  0.00    +0.112 C 
BRANCH   5   6
ATOM      6  C   UNL     1      52.147  55.902  21.384  1.00  0.00    +0.026 C 
ATOM      7  C   UNL     1      52.651  56.278  19.996  1.00  0.00    +0.006 C 
ENDBRANCH   5   6
BRANCH   5   8
ATOM      8  C   UNL     1      49.680  56.401  20.980  1.00  0.00    -0.026 A 
ATOM      9  C   UNL     1      48.964  56.257  19.779  1.00  0.00    +0.007 A 
ATOM     10  C   UNL     1      49.448  57.545  21.763  1.00  0.00    +0.007 A 
ATOM     11  C   UNL     1      48.038  57.223  19.377  1.00  0.00    +0.021 A 
ATOM     12  C   UNL     1      48.522  58.511  21.362  1.00  0.00    +0.021 A 
ATOM     13  C   UNL     1      47.820  58.345  20.171  1.00  0.00    +0.041 A 
ATOM     14 Cl   UNL     1      46.681  59.535  19.675  1.00  0.00    -0.084 Cl
ENDBRANCH   5   8
ENDBRANCH   1   5
BRANCH   2  15
ATOM     15  C   UNL     1      50.727  51.689  20.490  1.00  0.00    +0.046 A 
ATOM     16  C   UNL     1      50.900  50.429  21.069  1.00  0.00    +0.016 A 
ATOM     17  C   UNL     1      50.166  51.793  19.214  1.00  0.00    +0.101 A 
ATOM     18  C   UNL     1      50.522  49.275  20.371  1.00  0.00    +0.033 A 
ATOM     19  C   UNL     1      49.791  50.628  18.525  1.00  0.00    +0.292 A 
ATOM     20  C   UNL     1      49.921  49.350  19.105  1.00  0.00    +0.110 A 
BRANCH  19  21
ATOM     21  N   UNL     1      49.236  50.784  17.181  1.00  0.00    +0.064 N 
ATOM     22  O   UNL     1      49.912  50.373  16.224  1.00  0.00    -0.258 OA
ATOM     23  O   UNL     1      48.115  51.304  17.082  1.00  0.00    -0.258 OA
ENDBRANCH  19  21
BRANCH  20  24
ATOM     24  N   UNL     1      49.703  48.147  18.412  1.00  0.00    -0.393 N 
ATOM     25  H   UNL     1      48.800  48.113  17.927  1.00  0.00    +0.156 HD
ATOM     26  H   UNL     1      49.857  47.305  18.958  1.00  0.00    +0.156 HD
ENDBRANCH  20  24
ENDBRANCH   2  15
TORSDOF 6
ENDMDL
MODEL 5
REMARK VINA RESULT:    -7.986      3.534      7.453
REMARK INTER + INTRA:         -11.613
REMARK INTER:                 -10.550
REMARK INTRA:                  -1.063
REMARK UNBOUND:                -1.060
REMARK SMILES CC[C@H](NC(=O)c1ccc(N)c([N+](=O)[O-])c1)c1ccc(Cl)cc1
REMARK SMILES IDX 4 1 5 2 6 3 3 5 2 6 1 7 17 8 18 9 23 10 19 11 22 12 20 13
REMARK SMILES IDX 21 14 7 15 8 16 16 17 9 18 12 19 10 20 13 21 14 22 15 23
REMARK SMILES IDX 11 24
REMARK H PARENT 4 4 11 25 11 26
ROOT
ATOM      1  N   UNL     1      50.198  51.982  19.302  1.00  0.00    -0.345 N 
ATOM      2  C   UNL     1      50.192  50.606  19.391  1.00  0.00    +0.252 C 
ATOM      3  O   UNL     1      50.782  49.971  20.256  1.00  0.00    -0.269 OA
ATOM      4  H   UNL     1      49.441  52.413  18.789  1.00  0.00    +0.164 HD
ENDROOT
BRANCH   1   5
ATOM      5  C   UNL     1      50.851  52.804  20.314  1.00  0.00    +0.112 C 
BRANCH   5   6
ATOM      6  C   UNL     1      52.376  52.941  20.110  1.00  0.00    +0.026 C 
ATOM      7  C   UNL     1      52.827  53.184  18.675  1.00  0.00    +0.006 C 
ENDBRANCH   5   6
BRANCH   5   8
ATOM      8  C   UNL     1      50.159  54.156  20.449  1.00  0.00    -0.026 A 
ATOM      9  C   UNL     1      48.962  54.453  19.775  1.00  0.00    +0.007 A 
ATOM     10  C   UNL     1      50.734  55.148  21.261  1.00  0.00    +0.007 A 
ATOM     11  C   UNL     1      48.353  55.703  19.915  1.00  0.00    +0.021 A 
ATOM     12  C   UNL     1      50.126  56.398  21.402  1.00  0.00    +0.021 A 
ATOM     13  C   UNL     1      48.937  56.669  20.729  1.00  0.00    +0.041 A 
ATOM     14 Cl   UNL     1      48.188  58.208  20.901  1.00  0.00    -0.084 Cl
ENDBRANCH   5   8
ENDBRANCH   1   5
BRANCH   2  15
ATOM     15  C   UNL     1      49.375  49.885  18.379  1.00  0.00    +0.046 A 
ATOM     16  C   UNL     1      48.340  49.019  18.746  1.00  0.00    +0.016 A 
ATOM     17  C   UNL     1      49.647  50.103  17.025  1.00  0.00    +0.101 A 
ATOM     18  C   UNL     1      47.585  48.368  17.762  1.00  0.00    +0.033 A 
ATOM     19  C   UNL     1      48.883  49.444  16.050  1.00  0.00    +0.292 A 
ATOM     20  C   UNL     1      47.810  48.597  16.396  1.00  0.00    +0.110 A 
BRANCH  19  21
ATOM     21  N   UNL     1      49.223  49.681  14.647  1.00  0.00    +0.064 N 
ATOM     22  O   UNL     1      48.308  50.021  13.880  1.00  0.00    -0.258 OA
ATOM     23  O   UNL     1      50.409  49.540  14.314  1.00  0.00    -0.258 OA
ENDBRANCH  19  21
BRANCH  20  24
ATOM     24  N   UNL     1      47.110  47.801  15.474  1.00  0.00    -0.393 N 
ATOM     25  H   UNL     1      47.391  46.815  15.488  1.00  0.00    +0.156 HD
ATOM     26  H   UNL     1      47.089  48.163  14.525  1.00  0.00    +0.156 HD
ENDBRANCH  20  24
ENDBRANCH   2  15
TORSDOF 6
ENDMDL
