MODEL 1
REMARK VINA RESULT:    -9.383      0.000      0.000
REMARK INTER + INTRA:         -12.174
REMARK INTER:                 -11.577
REMARK INTRA:                  -0.598
REMARK UNBOUND:                -0.598
REMARK SMILES C[C@@H]1CCCC[C@@H]1NC(=O)NC(=O)CNc1cccc(C#N)c1
REMARK SMILES IDX 8 1 9 2 10 3 11 4 12 5 13 6 7 9 2 10 3 11 4 12 6 13 5 14
REMARK SMILES IDX 1 15 14 16 15 17 16 19 17 20 23 21 18 22 20 23 19 24 21 25
REMARK SMILES IDX 22 26
REMARK H PARENT 8 7 11 8 15 18
ROOT
ATOM      1  N   UNL     1      51.543  54.549  20.667  1.00  0.00    -0.335 N 
ATOM      2  C   UNL     1      51.653  53.176  20.754  1.00  0.00    +0.321 C 
ATOM      3  O   UNL     1      51.148  52.510  21.646  1.00  0.00    -0.248 OA
ATOM      4  N   UNL     1      52.355  52.676  19.689  1.00  0.00    -0.277 N 
ATOM      5  C   UNL     1      52.458  51.305  19.574  1.00  0.00    +0.247 C 
ATOM      6  O   UNL     1      53.126  50.589  20.310  1.00  0.00    -0.273 OA
ATOM      7  H   UNL     1      52.310  54.996  20.187  1.00  0.00    +0.165 HD
ATOM      8  H   UNL     1      52.004  53.093  18.832  1.00  0.00    +0.174 HD
ENDROOT
BRANCH   1   9
ATOM      9  C   UNL     1      50.887  55.319  21.722  1.00  0.00    +0.086 C 
ATOM     10  C   UNL     1      49.808  56.294  21.183  1.00  0.00    +0.008 C 
ATOM     11  C   UNL     1      50.332  57.726  20.943  1.00  0.00    +0.005 C 
ATOM     12  C   UNL     1      51.825  57.778  20.652  1.00  0.00    +0.000 C 
ATOM     13  C   UNL     1      51.918  56.076  22.569  1.00  0.00    +0.025 C 
ATOM     14  C   UNL     1      52.656  57.158  21.775  1.00  0.00    +0.002 C 
ATOM     15  C   UNL     1      49.069  55.755  19.955  1.00  0.00    +0.010 C 
ENDBRANCH   1   9
BRANCH   5  16
ATOM     16  C   UNL     1      51.698  50.768  18.359  1.00  0.00    +0.213 C 
BRANCH  16  17
ATOM     17  N   UNL     1      50.783  49.692  18.799  1.00  0.00    -0.376 N 
ATOM     18  H   UNL     1      50.763  49.649  19.822  1.00  0.00    +0.161 HD
BRANCH  17  19
ATOM     19  C   UNL     1      49.464  49.692  18.315  1.00  0.00    +0.036 A 
ATOM     20  C   UNL     1      49.082  50.722  17.439  1.00  0.00    +0.026 A 
ATOM     21  C   UNL     1      48.465  48.820  18.766  1.00  0.00    +0.045 A 
ATOM     22  C   UNL     1      47.772  50.833  16.967  1.00  0.00    +0.003 A 
ATOM     23  C   UNL     1      47.146  48.926  18.299  1.00  0.00    +0.054 A 
ATOM     24  C   UNL     1      46.803  49.930  17.391  1.00  0.00    +0.019 A 
ATOM     25  C   UNL     1      46.146  48.012  18.766  1.00  0.00    +0.099 C 
ATOM     26  N   UNL     1      45.336  47.272  19.145  1.00  0.00    -0.192 NA
ENDBRANCH  17  19
ENDBRANCH  16  17
ENDBRANCH   5  16
TORSDOF 4
ENDMDL
MODEL 2
REMARK VINA RESULT:    -9.381      1.446      2.403
REMARK INTER + INTRA:         -12.172
REMARK INTER:                 -11.232
REMARK INTRA:                  -0.941
REMARK UNBOUND:                -0.598
REMARK SMILES C[C@@H]1CCCC[C@@H]1NC(=O)NC(=O)CNc1cccc(C#N)c1
REMARK SMILES IDX 8 1 9 2 10 3 11 4 12 5 13 6 7 9 2 10 3 11 4 12 6 13 5 14
REMARK SMILES IDX 1 15 14 16 15 17 16 19 17 20 23 21 18 22 20 23 19 24 21 25
REMARK SMILES IDX 22 26
REMARK H PARENT 8 7 11 8 15 18
ROOT
ATOM      1  N   UNL     1      51.618  54.420  20.759  1.00  0.00    -0.335 N 
ATOM      2  C   UNL     1      51.668  53.042  20.836  1.00  0.00    +0.321 C 
ATOM      3  O   UNL     1      51.007  52.383  21.625  1.00  0.00    -0.248 OA
ATOM      4  N   UNL     1      52.513  52.533  19.886  1.00  0.00    -0.277 N 
ATOM      5  C   UNL     1      52.588  51.160  19.764  1.00  0.00    +0.247 C 
ATOM      6  O   UNL     1      53.108  50.411  20.583  1.00  0.00    -0.273 OA
ATOM      7  H   UNL     1      52.466  54.846  20.414  1.00  0.00    +0.165 HD
ATOM      8  H   UNL     1      52.315  52.973  18.993  1.00  0.00    +0.174 HD
ENDROOT
BRANCH   1   9
ATOM      9  C   UNL     1      50.829  55.198  21.711  1.00  0.00    +0.086 C 
ATOM     10  C   UNL     1      49.767  56.100  21.029  1.00  0.00    +0.008 C 
ATOM     11  C   UNL     1      50.250  57.545  20.778  1.00  0.00    +0.005 C 
ATOM     12  C   UNL     1      51.761  57.656  20.631  1.00  0.00    +0.000 C 
ATOM     13  C   UNL     1      51.738  56.036  22.620  1.00  0.00    +0.025 C 
ATOM     14  C   UNL     1      52.503  57.119  21.855  1.00  0.00    +0.002 C 
ATOM     15  C   UNL     1      49.177  55.480  19.759  1.00  0.00    +0.010 C 
ENDBRANCH   1   9
BRANCH   5  16
ATOM     16  C   UNL     1      52.013  50.666  18.435  1.00  0.00    +0.213 C 
BRANCH  16  17
ATOM     17  N   UNL     1      50.785  49.884  18.701  1.00  0.00    -0.376 N 
ATOM     18  H   UNL     1      50.701  49.700  19.705  1.00  0.00    +0.161 HD
BRANCH  17  19
ATOM     19  C   UNL     1      49.559  50.373  18.220  1.00  0.00    +0.036 A 
ATOM     20  C   UNL     1      48.476  49.482  18.143  1.00  0.00    +0.026 A 
ATOM     21  C   UNL     1      49.389  51.650  17.670  1.00  0.00    +0.045 A 
ATOM     22  C   UNL     1      47.244  49.871  17.613  1.00  0.00    +0.003 A 
ATOM     23  C   UNL     1      48.155  52.049  17.132  1.00  0.00    +0.054 A 
ATOM     24  C   UNL     1      47.079  51.158  17.112  1.00  0.00    +0.019 A 
ATOM     25  C   UNL     1      48.003  53.366  16.589  1.00  0.00    +0.099 C 
ATOM     26  N   UNL     1      47.880  54.433  16.149  1.00  0.00    -0.192 NA
ENDBRANCH  17  19
ENDBRANCH  16  17
ENDBRANCH   5  16
TORSDOF 4
ENDMDL
MODEL 3
REMARK VINA RESULT:    -9.119      1.613      7.811
REMARK INTER + INTRA:         -11.849
REMARK INTER:                 -11.300
REMARK INTRA:                  -0.549
REMARK UNBOUND:                -0.598
REMARK SMILES C[C@@H]1CCCC[C@@H]1NC(=O)NC(=O)CNc1cccc(C#N)c1
REMARK SMILES IDX 8 1 9 2 10 3 11 4 12 5 13 6 7 9 2 10 3 11 4 12 6 13 5 14
REMARK SMILES IDX 1 15 14 16 15 17 16 19 17 20 23 21 18 22 20 23 19 24 21 25
REMARK SMILES IDX 22 26
REMARK H PARENT 8 7 11 8 15 18
ROOT
ATOM      1  N   UNL     1      49.362  50.056  18.575  1.00  0.00    -0.335 N 
ATOM      2  C   UNL     1      50.628  50.523  18.867  1.00  0.00    +0.321 C 
ATOM      3  O   UNL     1      51.446  50.841  18.016  1.00  0.00    -0.248 OA
ATOM      4  N   UNL     1      50.811  50.619  20.221  1.00  0.00    -0.277 N 
ATOM      5  C   UNL     1      51.991  51.175  20.671  1.00  0.00    +0.247 C 
ATOM      6  O   UNL     1      53.092  50.641  20.592  1.00  0.00    -0.273 OA
ATOM      7  H   UNL     1      48.972  49.450  19.282  1.00  0.00    +0.165 HD
ATOM      8  H   UNL     1      50.006  51.079  20.634  1.00  0.00    +0.174 HD
ENDROOT
BRANCH   1   9
ATOM      9  C   UNL     1      48.951  49.810  17.195  1.00  0.00    +0.086 C 
ATOM     10  C   UNL     1      47.747  50.683  16.753  1.00  0.00    +0.008 C 
ATOM     11  C   UNL     1      46.380  49.984  16.919  1.00  0.00    +0.005 C 
ATOM     12  C   UNL     1      46.377  48.924  18.012  1.00  0.00    +0.000 C 
ATOM     13  C   UNL     1      48.644  48.323  16.972  1.00  0.00    +0.025 C 
ATOM     14  C   UNL     1      47.430  47.843  17.773  1.00  0.00    +0.002 C 
ATOM     15  C   UNL     1      47.745  52.074  17.394  1.00  0.00    +0.010 C 
ENDBRANCH   1   9
BRANCH   5  16
ATOM     16  C   UNL     1      51.769  52.521  21.364  1.00  0.00    +0.213 C 
BRANCH  16  17
ATOM     17  N   UNL     1      51.657  53.581  20.337  1.00  0.00    -0.376 N 
ATOM     18  H   UNL     1      51.043  53.266  19.579  1.00  0.00    +0.161 HD
BRANCH  17  19
ATOM     19  C   UNL     1      51.264  54.868  20.740  1.00  0.00    +0.036 A 
ATOM     20  C   UNL     1      49.905  55.206  20.641  1.00  0.00    +0.026 A 
ATOM     21  C   UNL     1      52.161  55.885  21.091  1.00  0.00    +0.045 A 
ATOM     22  C   UNL     1      49.443  56.486  20.956  1.00  0.00    +0.003 A 
ATOM     23  C   UNL     1      51.707  57.175  21.407  1.00  0.00    +0.054 A 
ATOM     24  C   UNL     1      50.344  57.471  21.347  1.00  0.00    +0.019 A 
ATOM     25  C   UNL     1      52.645  58.193  21.776  1.00  0.00    +0.099 C 
ATOM     26  N   UNL     1      53.405  59.018  22.076  1.00  0.00    -0.192 NA
ENDBRANCH  17  19
ENDBRANCH  16  17
ENDBRANCH   5  16
TORSDOF 4
ENDMDL
MODEL 4
REMARK VINA RESULT:    -8.636      1.938      7.385
REMARK INTER + INTRA:         -11.253
REMARK INTER:                 -10.812
REMARK INTRA:                  -0.442
REMARK UNBOUND:                -0.598
REMARK SMILES C[C@@H]1CCCC[C@@H]1NC(=O)NC(=O)CNc1cccc(C#N)c1
REMARK SMILES IDX 8 1 9 2 10 3 11 4 12 5 13 6 7 9 2 10 3 11 4 12 6 13 5 14
REMARK SMILES IDX 1 15 14 16 15 17 16 19 17 20 23 21 18 22 20 23 19 24 21 25
REMARK SMILES IDX 22 26
REMARK H PARENT 8 7 11 8 15 18
ROOT
ATOM      1  N   UNL     1      48.992  50.190  17.982  1.00  0.00    -0.335 N 
ATOM      2  C   UNL     1      49.950  51.171  18.137  1.00  0.00    +0.321 C 
ATOM      3  O   UNL     1      49.801  52.328  17.771  1.00  0.00    -0.248 OA
ATOM      4  N   UNL     1      51.048  50.679  18.791  1.00  0.00    -0.277 N 
ATOM      5  C   UNL     1      52.051  51.568  19.120  1.00  0.00    +0.247 C 
ATOM      6  O   UNL     1      52.808  52.100  18.315  1.00  0.00    -0.273 OA
ATOM      7  H   UNL     1      49.365  49.254  17.915  1.00  0.00    +0.165 HD
ATOM      8  H   UNL     1      50.744  50.150  19.603  1.00  0.00    +0.174 HD
ENDROOT
BRANCH   1   9
ATOM      9  C   UNL     1      47.751  50.458  17.257  1.00  0.00    +0.086 C 
ATOM     10  C   UNL     1      46.737  49.286  17.331  1.00  0.00    +0.008 C 
ATOM     11  C   UNL     1      46.821  48.317  16.133  1.00  0.00    +0.005 C 
ATOM     12  C   UNL     1      48.197  48.283  15.483  1.00  0.00    +0.000 C 
ATOM     13  C   UNL     1      48.039  50.825  15.795  1.00  0.00    +0.025 C 
ATOM     14  C   UNL     1      48.646  49.663  15.003  1.00  0.00    +0.002 C 
ATOM     15  C   UNL     1      46.785  48.533  18.664  1.00  0.00    +0.010 C 
ENDBRANCH   1   9
BRANCH   5  16
ATOM     16  C   UNL     1      52.176  51.767  20.632  1.00  0.00    +0.213 C 
BRANCH  16  17
ATOM     17  N   UNL     1      50.919  52.354  21.148  1.00  0.00    -0.376 N 
ATOM     18  H   UNL     1      50.672  51.917  22.040  1.00  0.00    +0.161 HD
BRANCH  17  19
ATOM     19  C   UNL     1      50.835  53.751  21.282  1.00  0.00    +0.036 A 
ATOM     20  C   UNL     1      51.638  54.369  22.254  1.00  0.00    +0.026 A 
ATOM     21  C   UNL     1      49.895  54.545  20.614  1.00  0.00    +0.045 A 
ATOM     22  C   UNL     1      51.564  55.743  22.499  1.00  0.00    +0.003 A 
ATOM     23  C   UNL     1      49.812  55.926  20.855  1.00  0.00    +0.054 A 
ATOM     24  C   UNL     1      50.655  56.525  21.793  1.00  0.00    +0.019 A 
ATOM     25  C   UNL     1      48.851  56.719  20.147  1.00  0.00    +0.099 C 
ATOM     26  N   UNL     1      48.072  57.361  19.574  1.00  0.00    -0.192 NA
ENDBRANCH  17  19
ENDBRANCH  16  17
ENDBRANCH   5  16
TORSDOF 4
ENDMDL
MODEL 5
REMARK VINA RESULT:    -8.002      2.246      7.674
REMARK INTER + INTRA:         -10.470
REMARK INTER:                  -9.837
REMARK INTRA:                  -0.633
REMARK UNBOUND:                -0.598
REMARK SMILES C[C@@H]1CCCC[C@@H]1NC(=O)NC(=O)CNc1cccc(C#N)c1
REMARK SMILES IDX 8 1 9 2 10 3 11 4 12 5 13 6 7 9 2 10 3 11 4 12 6 13 5 14
REMARK SMILES IDX 1 15 14 16 15 17 16 19 17 20 23 21 18 22 20 23 19 24 21 25
REMARK SMILES IDX 22 26
REMARK H PARENT 8 7 11 8 15 18
ROOT
ATOM      1  N   UNL     1      48.972  50.473  17.863  1.00  0.00    -0.335 N 
ATOM      2  C   UNL     1      49.931  50.928  18.746  1.00  0.00    +0.321 C 
ATOM      3  O   UNL     1      50.850  50.238  19.164  1.00  0.00    -0.248 OA
ATOM      4  N   UNL     1      49.733  52.251  19.041  1.00  0.00    -0.277 N 
ATOM      5  C   UNL     1      50.675  52.881  19.828  1.00  0.00    +0.247 C 
ATOM      6  O   UNL     1      50.842  52.673  21.024  1.00  0.00    -0.273 OA
ATOM      7  H   UNL     1      48.085  50.949  17.935  1.00  0.00    +0.165 HD
ATOM      8  H   UNL     1      49.568  52.763  18.180  1.00  0.00    +0.174 HD
ENDROOT
BRANCH   1   9
ATOM      9  C   UNL     1      48.938  49.073  17.446  1.00  0.00    +0.086 C 
ATOM     10  C   UNL     1      48.705  48.898  15.922  1.00  0.00    +0.008 C 
ATOM     11  C   UNL     1      47.224  48.688  15.541  1.00  0.00    +0.005 C 
ATOM     12  C   UNL     1      46.254  49.304  16.540  1.00  0.00    +0.000 C 
ATOM     13  C   UNL     1      47.884  48.291  18.242  1.00  0.00    +0.025 C 
ATOM     14  C   UNL     1      46.456  48.761  17.954  1.00  0.00    +0.002 C 
ATOM     15  C   UNL     1      49.346  50.008  15.084  1.00  0.00    +0.010 C 
ENDBRANCH   1   9
BRANCH   5  16
ATOM     16  C   UNL     1      51.454  53.947  19.055  1.00  0.00    +0.213 C 
BRANCH  16  17
ATOM     17  N   UNL     1      51.588  55.155  19.899  1.00  0.00    -0.376 N 
ATOM     18  H   UNL     1      52.432  55.672  19.635  1.00  0.00    +0.161 HD
BRANCH  17  19
ATOM     19  C   UNL     1      50.506  56.049  19.970  1.00  0.00    +0.036 A 
ATOM     20  C   UNL     1      50.108  56.505  21.238  1.00  0.00    +0.026 A 
ATOM     21  C   UNL     1      49.705  56.394  18.875  1.00  0.00    +0.045 A 
ATOM     22  C   UNL     1      49.000  57.339  21.401  1.00  0.00    +0.003 A 
ATOM     23  C   UNL     1      48.588  57.231  19.030  1.00  0.00    +0.054 A 
ATOM     24  C   UNL     1      48.242  57.710  20.295  1.00  0.00    +0.019 A 
ATOM     25  C   UNL     1      47.793  57.581  17.890  1.00  0.00    +0.099 C 
ATOM     26  N   UNL     1      47.149  57.864  16.967  1.00  0.00    -0.192 NA
ENDBRANCH  17  19
ENDBRANCH  16  17
ENDBRANCH   5  16
TORSDOF 4
ENDMDL
