MODEL 1
REMARK VINA RESULT:   -10.081      0.000      0.000
REMARK INTER + INTRA:         -16.811
REMARK INTER:                 -15.386
REMARK INTRA:                  -1.426
REMARK UNBOUND:                -1.426
REMARK SMILES O=C(CC[C@@]1(Cc2ccc(Cl)cc2)CCC(=O)N1)NCCc1nc(-c2ccncc2)n[nH]1
REMARK SMILES IDX 3 1 4 2 5 3 14 4 18 5 15 6 16 7 17 8 6 10 7 11 8 12 9 13
REMARK SMILES IDX 10 14 13 15 12 16 11 17 2 18 1 19 19 20 20 22 21 23 22 24
REMARK SMILES IDX 32 25 23 26 31 27 24 28 25 30 26 31 30 32 27 33 29 34 28 35
REMARK H PARENT 18 9 19 21 32 29
ROOT
ATOM      1  C   UNL     1      52.643  53.751  19.314  1.00  0.00    +0.102 C 
ENDROOT
BRANCH   1   2
ATOM      2  C   UNL     1      51.995  53.988  20.683  1.00  0.00    +0.038 C 
BRANCH   2   3
ATOM      3  C   UNL     1      51.233  55.339  20.823  1.00  0.00    +0.045 C 
ATOM      4  C   UNL     1      51.390  55.854  22.271  1.00  0.00    +0.038 C 
ATOM      5  N   UNL     1      51.920  56.375  20.082  1.00  0.00    -0.350 N 
ATOM      6  C   UNL     1      52.737  56.584  22.268  1.00  0.00    +0.102 C 
ATOM      7  C   UNL     1      52.875  57.027  20.834  1.00  0.00    +0.220 C 
ATOM      8  O   UNL     1      53.710  57.787  20.380  1.00  0.00    -0.275 OA
ATOM      9  H   UNL     1      51.947  56.468  19.073  1.00  0.00    +0.164 HD
BRANCH   3  10
ATOM     10  C   UNL     1      49.754  55.161  20.386  1.00  0.00    +0.064 C 
BRANCH  10  11
ATOM     11  C   UNL     1      48.964  56.418  20.089  1.00  0.00    -0.046 A 
ATOM     12  C   UNL     1      48.615  57.293  21.131  1.00  0.00    +0.005 A 
ATOM     13  C   UNL     1      47.887  58.455  20.869  1.00  0.00    +0.021 A 
ATOM     14  C   UNL     1      47.499  58.750  19.564  1.00  0.00    +0.041 A 
ATOM     15  C   UNL     1      48.565  56.729  18.782  1.00  0.00    +0.005 A 
ATOM     16  C   UNL     1      47.837  57.892  18.520  1.00  0.00    +0.021 A 
ATOM     17 Cl   UNL     1      46.603  60.182  19.242  1.00  0.00    -0.084 Cl
ENDBRANCH  10  11
ENDBRANCH   3  10
ENDBRANCH   2   3
ENDBRANCH   1   2
BRANCH   1  18
ATOM     18  C   UNL     1      52.610  52.281  18.943  1.00  0.00    +0.220 C 
ATOM     19  O   UNL     1      52.676  51.883  17.790  1.00  0.00    -0.275 OA
ATOM     20  N   UNL     1      52.586  51.438  20.027  1.00  0.00    -0.356 N 
ATOM     21  H   UNL     1      52.450  51.846  20.947  1.00  0.00    +0.163 HD
BRANCH  20  22
ATOM     22  C   UNL     1      52.343  50.005  19.922  1.00  0.00    +0.124 C 
BRANCH  22  23
ATOM     23  C   UNL     1      50.980  49.501  20.405  1.00  0.00    +0.098 C 
BRANCH  23  24
ATOM     24  C   UNL     1      49.999  49.394  19.300  1.00  0.00    +0.126 A 
ATOM     25  N   UNL     1      50.292  49.772  18.022  1.00  0.00    -0.263 N 
ATOM     26  N   UNL     1      48.770  48.942  19.340  1.00  0.00    -0.212 NA
ATOM     27  N   UNL     1      49.256  49.558  17.199  1.00  0.00    -0.153 NA
ATOM     28  C   UNL     1      48.330  49.061  18.037  1.00  0.00    +0.181 A 
ATOM     29  H   UNL     1      51.156  50.163  17.663  1.00  0.00    +0.192 HD
BRANCH  28  30
ATOM     30  C   UNL     1      46.983  48.684  17.636  1.00  0.00    +0.024 A 
ATOM     31  C   UNL     1      46.582  48.822  16.307  1.00  0.00    +0.032 A 
ATOM     32  C   UNL     1      46.070  48.176  18.562  1.00  0.00    +0.032 A 
ATOM     33  C   UNL     1      45.293  48.450  15.961  1.00  0.00    +0.111 A 
ATOM     34  C   UNL     1      44.803  47.832  18.120  1.00  0.00    +0.111 A 
ATOM     35  N   UNL     1      44.394  47.957  16.839  1.00  0.00    -0.265 NA
ENDBRANCH  28  30
ENDBRANCH  23  24
ENDBRANCH  22  23
ENDBRANCH  20  22
ENDBRANCH   1  18
TORSDOF 9
ENDMDL
MODEL 2
REMARK VINA RESULT:    -9.168      2.001      2.658
REMARK INTER + INTRA:         -15.417
REMARK INTER:                 -14.063
REMARK INTRA:                  -1.355
REMARK UNBOUND:                -1.426
REMARK SMILES O=C(CC[C@@]1(Cc2ccc(Cl)cc2)CCC(=O)N1)NCCc1nc(-c2ccncc2)n[nH]1
REMARK SMILES IDX 3 1 4 2 5 3 14 4 18 5 15 6 16 7 17 8 6 10 7 11 8 12 9 13
REMARK SMILES IDX 10 14 13 15 12 16 11 17 2 18 1 19 19 20 20 22 21 23 22 24
REMARK SMILES IDX 32 25 23 26 31 27 24 28 25 30 26 31 30 32 27 33 29 34 28 35
REMARK H PARENT 18 9 19 21 32 29
ROOT
ATOM      1  C   UNL     1      50.561  51.899  18.719  1.00  0.00    +0.102 C 
ENDROOT
BRANCH   1   2
ATOM      2  C   UNL     1      50.871  53.391  18.549  1.00  0.00    +0.038 C 
BRANCH   2   3
ATOM      3  C   UNL     1      50.212  54.323  19.608  1.00  0.00    +0.045 C 
ATOM      4  C   UNL     1      50.316  53.655  20.996  1.00  0.00    +0.038 C 
ATOM      5  N   UNL     1      51.026  55.504  19.804  1.00  0.00    -0.350 N 
ATOM      6  C   UNL     1      51.714  54.034  21.494  1.00  0.00    +0.102 C 
ATOM      7  C   UNL     1      51.979  55.338  20.787  1.00  0.00    +0.220 C 
ATOM      8  O   UNL     1      52.899  56.108  20.992  1.00  0.00    -0.275 OA
ATOM      9  H   UNL     1      51.125  56.275  19.154  1.00  0.00    +0.164 HD
BRANCH   3  10
ATOM     10  C   UNL     1      48.755  54.655  19.188  1.00  0.00    +0.064 C 
BRANCH  10  11
ATOM     11  C   UNL     1      48.337  56.110  19.230  1.00  0.00    -0.046 A 
ATOM     12  C   UNL     1      48.030  56.719  20.458  1.00  0.00    +0.005 A 
ATOM     13  C   UNL     1      47.644  58.060  20.509  1.00  0.00    +0.021 A 
ATOM     14  C   UNL     1      47.558  58.801  19.333  1.00  0.00    +0.041 A 
ATOM     15  C   UNL     1      48.244  56.869  18.056  1.00  0.00    +0.005 A 
ATOM     16  C   UNL     1      47.858  58.211  18.107  1.00  0.00    +0.021 A 
ATOM     17 Cl   UNL     1      47.083  60.453  19.396  1.00  0.00    -0.084 Cl
ENDBRANCH  10  11
ENDBRANCH   3  10
ENDBRANCH   2   3
ENDBRANCH   1   2
BRANCH   1  18
ATOM     18  C   UNL     1      51.558  51.046  17.958  1.00  0.00    +0.220 C 
ATOM     19  O   UNL     1      52.588  50.620  18.457  1.00  0.00    -0.275 OA
ATOM     20  N   UNL     1      51.151  50.725  16.686  1.00  0.00    -0.356 N 
ATOM     21  H   UNL     1      50.323  51.184  16.319  1.00  0.00    +0.163 HD
BRANCH  20  22
ATOM     22  C   UNL     1      52.023  50.097  15.701  1.00  0.00    +0.124 C 
BRANCH  22  23
ATOM     23  C   UNL     1      51.368  49.640  14.395  1.00  0.00    +0.098 C 
BRANCH  23  24
ATOM     24  C   UNL     1      49.895  49.538  14.513  1.00  0.00    +0.126 A 
ATOM     25  N   UNL     1      49.048  50.062  13.579  1.00  0.00    -0.263 N 
ATOM     26  N   UNL     1      49.188  48.963  15.454  1.00  0.00    -0.212 NA
ATOM     27  N   UNL     1      47.767  49.823  13.893  1.00  0.00    -0.153 NA
ATOM     28  C   UNL     1      47.882  49.160  15.056  1.00  0.00    +0.181 A 
ATOM     29  H   UNL     1      49.280  50.569  12.733  1.00  0.00    +0.192 HD
BRANCH  28  30
ATOM     30  C   UNL     1      46.752  48.689  15.843  1.00  0.00    +0.024 A 
ATOM     31  C   UNL     1      46.292  49.437  16.928  1.00  0.00    +0.032 A 
ATOM     32  C   UNL     1      46.104  47.492  15.532  1.00  0.00    +0.032 A 
ATOM     33  C   UNL     1      45.212  48.958  17.652  1.00  0.00    +0.111 A 
ATOM     34  C   UNL     1      45.033  47.098  16.316  1.00  0.00    +0.111 A 
ATOM     35  N   UNL     1      44.572  47.804  17.369  1.00  0.00    -0.265 NA
ENDBRANCH  28  30
ENDBRANCH  23  24
ENDBRANCH  22  23
ENDBRANCH  20  22
ENDBRANCH   1  18
TORSDOF 9
ENDMDL
MODEL 3
REMARK VINA RESULT:    -9.070      2.873      4.501
REMARK INTER + INTRA:         -15.268
REMARK INTER:                 -14.617
REMARK INTRA:                  -0.650
REMARK UNBOUND:                -1.426
REMARK SMILES O=C(CC[C@@]1(Cc2ccc(Cl)cc2)CCC(=O)N1)NCCc1nc(-c2ccncc2)n[nH]1
REMARK SMILES IDX 3 1 4 2 5 3 14 4 18 5 15 6 16 7 17 8 6 10 7 11 8 12 9 13
REMARK SMILES IDX 10 14 13 15 12 16 11 17 2 18 1 19 19 20 20 22 21 23 22 24
REMARK SMILES IDX 32 25 23 26 31 27 24 28 25 30 26 31 30 32 27 33 29 34 28 35
REMARK H PARENT 18 9 19 21 32 29
ROOT
ATOM      1  C   UNL     1      49.317  56.661  20.309  1.00  0.00    +0.102 C 
ENDROOT
BRANCH   1   2
ATOM      2  C   UNL     1      50.739  57.232  20.237  1.00  0.00    +0.038 C 
BRANCH   2   3
ATOM      3  C   UNL     1      51.736  56.643  21.277  1.00  0.00    +0.045 C 
ATOM      4  C   UNL     1      53.105  56.433  20.595  1.00  0.00    +0.038 C 
ATOM      5  N   UNL     1      52.068  57.645  22.268  1.00  0.00    -0.350 N 
ATOM      6  C   UNL     1      53.784  57.803  20.680  1.00  0.00    +0.102 C 
ATOM      7  C   UNL     1      53.156  58.412  21.908  1.00  0.00    +0.220 C 
ATOM      8  O   UNL     1      53.497  59.434  22.474  1.00  0.00    -0.275 OA
ATOM      9  H   UNL     1      51.459  57.979  23.006  1.00  0.00    +0.164 HD
BRANCH   3  10
ATOM     10  C   UNL     1      51.148  55.347  21.900  1.00  0.00    +0.064 C 
BRANCH  10  11
ATOM     11  C   UNL     1      51.577  54.030  21.288  1.00  0.00    -0.046 A 
ATOM     12  C   UNL     1      51.345  52.827  21.974  1.00  0.00    +0.005 A 
ATOM     13  C   UNL     1      51.736  51.606  21.419  1.00  0.00    +0.021 A 
ATOM     14  C   UNL     1      52.365  51.581  20.177  1.00  0.00    +0.041 A 
ATOM     15  C   UNL     1      52.211  53.987  20.039  1.00  0.00    +0.005 A 
ATOM     16  C   UNL     1      52.602  52.765  19.484  1.00  0.00    +0.021 A 
ATOM     17 Cl   UNL     1      52.846  50.077  19.494  1.00  0.00    -0.084 Cl
ENDBRANCH  10  11
ENDBRANCH   3  10
ENDBRANCH   2   3
ENDBRANCH   1   2
BRANCH   1  18
ATOM     18  C   UNL     1      48.939  55.974  19.010  1.00  0.00    +0.220 C 
ATOM     19  O   UNL     1      48.598  56.584  18.009  1.00  0.00    -0.275 OA
ATOM     20  N   UNL     1      49.101  54.611  19.040  1.00  0.00    -0.356 N 
ATOM     21  H   UNL     1      49.310  54.173  19.932  1.00  0.00    +0.163 HD
BRANCH  20  22
ATOM     22  C   UNL     1      48.610  53.724  17.993  1.00  0.00    +0.124 C 
BRANCH  22  23
ATOM     23  C   UNL     1      49.505  52.539  17.620  1.00  0.00    +0.098 C 
BRANCH  23  24
ATOM     24  C   UNL     1      48.783  51.247  17.695  1.00  0.00    +0.126 A 
ATOM     25  N   UNL     1      49.259  50.183  18.405  1.00  0.00    -0.263 N 
ATOM     26  N   UNL     1      47.641  50.915  17.145  1.00  0.00    -0.212 NA
ATOM     27  N   UNL     1      48.421  49.138  18.341  1.00  0.00    -0.153 NA
ATOM     28  C   UNL     1      47.444  49.611  17.549  1.00  0.00    +0.181 A 
ATOM     29  H   UNL     1      50.117  50.116  18.941  1.00  0.00    +0.192 HD
BRANCH  28  30
ATOM     30  C   UNL     1      46.281  48.839  17.137  1.00  0.00    +0.024 A 
ATOM     31  C   UNL     1      45.447  48.261  18.094  1.00  0.00    +0.032 A 
ATOM     32  C   UNL     1      45.972  48.664  15.786  1.00  0.00    +0.032 A 
ATOM     33  C   UNL     1      44.348  47.535  17.664  1.00  0.00    +0.111 A 
ATOM     34  C   UNL     1      44.851  47.922  15.456  1.00  0.00    +0.111 A 
ATOM     35  N   UNL     1      44.031  47.354  16.366  1.00  0.00    -0.265 NA
ENDBRANCH  28  30
ENDBRANCH  23  24
ENDBRANCH  22  23
ENDBRANCH  20  22
ENDBRANCH   1  18
TORSDOF 9
ENDMDL
MODEL 4
REMARK VINA RESULT:    -8.901      4.210      9.443
REMARK INTER + INTRA:         -15.009
REMARK INTER:                 -13.554
REMARK INTRA:                  -1.456
REMARK UNBOUND:                -1.426
REMARK SMILES O=C(CC[C@@]1(Cc2ccc(Cl)cc2)CCC(=O)N1)NCCc1nc(-c2ccncc2)n[nH]1
REMARK SMILES IDX 3 1 4 2 5 3 14 4 18 5 15 6 16 7 17 8 6 10 7 11 8 12 9 13
REMARK SMILES IDX 10 14 13 15 12 16 11 17 2 18 1 19 19 20 20 22 21 23 22 24
REMARK SMILES IDX 32 25 23 26 31 27 24 28 25 30 26 31 30 32 27 33 29 34 28 35
REMARK H PARENT 18 9 19 21 32 29
ROOT
ATOM      1  C   UNL     1      48.966  53.677  17.677  1.00  0.00    +0.102 C 
ENDROOT
BRANCH   1   2
ATOM      2  C   UNL     1      49.202  52.774  18.893  1.00  0.00    +0.038 C 
BRANCH   2   3
ATOM      3  C   UNL     1      50.416  51.807  18.767  1.00  0.00    +0.045 C 
ATOM      4  C   UNL     1      51.674  52.627  18.404  1.00  0.00    +0.038 C 
ATOM      5  N   UNL     1      50.782  51.297  20.072  1.00  0.00    -0.350 N 
ATOM      6  C   UNL     1      52.190  53.142  19.751  1.00  0.00    +0.102 C 
ATOM      7  C   UNL     1      51.699  52.097  20.720  1.00  0.00    +0.220 C 
ATOM      8  O   UNL     1      52.003  51.987  21.893  1.00  0.00    -0.275 OA
ATOM      9  H   UNL     1      50.264  50.614  20.611  1.00  0.00    +0.164 HD
BRANCH   3  10
ATOM     10  C   UNL     1      50.094  50.683  17.746  1.00  0.00    +0.064 C 
BRANCH  10  11
ATOM     11  C   UNL     1      48.721  50.050  17.825  1.00  0.00    -0.046 A 
ATOM     12  C   UNL     1      47.708  50.452  16.939  1.00  0.00    +0.005 A 
ATOM     13  C   UNL     1      46.438  49.875  17.003  1.00  0.00    +0.021 A 
ATOM     14  C   UNL     1      46.170  48.895  17.956  1.00  0.00    +0.041 A 
ATOM     15  C   UNL     1      48.434  49.063  18.778  1.00  0.00    +0.005 A 
ATOM     16  C   UNL     1      47.163  48.486  18.842  1.00  0.00    +0.021 A 
ATOM     17 Cl   UNL     1      44.606  48.184  18.034  1.00  0.00    -0.084 Cl
ENDBRANCH  10  11
ENDBRANCH   3  10
ENDBRANCH   2   3
ENDBRANCH   1   2
BRANCH   1  18
ATOM     18  C   UNL     1      48.968  55.140  18.076  1.00  0.00    +0.220 C 
ATOM     19  O   UNL     1      48.833  56.050  17.272  1.00  0.00    -0.275 OA
ATOM     20  N   UNL     1      49.048  55.342  19.431  1.00  0.00    -0.356 N 
ATOM     21  H   UNL     1      49.240  54.540  20.024  1.00  0.00    +0.163 HD
BRANCH  20  22
ATOM     22  C   UNL     1      49.275  56.650  20.034  1.00  0.00    +0.124 C 
BRANCH  22  23
ATOM     23  C   UNL     1      48.042  57.386  20.566  1.00  0.00    +0.098 C 
BRANCH  23  24
ATOM     24  C   UNL     1      47.601  58.469  19.656  1.00  0.00    +0.126 A 
ATOM     25  N   UNL     1      47.578  58.321  18.299  1.00  0.00    -0.263 N 
ATOM     26  N   UNL     1      47.175  59.670  19.961  1.00  0.00    -0.212 NA
ATOM     27  N   UNL     1      47.121  59.426  17.695  1.00  0.00    -0.153 NA
ATOM     28  C   UNL     1      46.894  60.243  18.738  1.00  0.00    +0.181 A 
ATOM     29  H   UNL     1      47.848  57.513  17.749  1.00  0.00    +0.192 HD
BRANCH  28  30
ATOM     30  C   UNL     1      46.406  61.608  18.615  1.00  0.00    +0.024 A 
ATOM     31  C   UNL     1      45.353  62.052  19.416  1.00  0.00    +0.032 A 
ATOM     32  C   UNL     1      46.977  62.500  17.706  1.00  0.00    +0.032 A 
ATOM     33  C   UNL     1      44.917  63.359  19.274  1.00  0.00    +0.111 A 
ATOM     34  C   UNL     1      46.471  63.788  17.637  1.00  0.00    +0.111 A 
ATOM     35  N   UNL     1      45.454  64.238  18.402  1.00  0.00    -0.265 NA
ENDBRANCH  28  30
ENDBRANCH  23  24
ENDBRANCH  22  23
ENDBRANCH  20  22
ENDBRANCH   1  18
TORSDOF 9
ENDMDL
MODEL 5
REMARK VINA RESULT:    -8.829      2.169      3.946
REMARK INTER + INTRA:         -14.900
REMARK INTER:                 -13.619
REMARK INTRA:                  -1.281
REMARK UNBOUND:                -1.426
REMARK SMILES O=C(CC[C@@]1(Cc2ccc(Cl)cc2)CCC(=O)N1)NCCc1nc(-c2ccncc2)n[nH]1
REMARK SMILES IDX 3 1 4 2 5 3 14 4 18 5 15 6 16 7 17 8 6 10 7 11 8 12 9 13
REMARK SMILES IDX 10 14 13 15 12 16 11 17 2 18 1 19 19 20 20 22 21 23 22 24
REMARK SMILES IDX 32 25 23 26 31 27 24 28 25 30 26 31 30 32 27 33 29 34 28 35
REMARK H PARENT 18 9 19 21 32 29
ROOT
ATOM      1  C   UNL     1      50.473  52.221  17.817  1.00  0.00    +0.102 C 
ENDROOT
BRANCH   1   2
ATOM      2  C   UNL     1      50.139  52.629  19.257  1.00  0.00    +0.038 C 
BRANCH   2   3
ATOM      3  C   UNL     1      51.371  52.977  20.143  1.00  0.00    +0.045 C 
ATOM      4  C   UNL     1      51.085  52.535  21.594  1.00  0.00    +0.038 C 
ATOM      5  N   UNL     1      52.485  52.117  19.803  1.00  0.00    -0.350 N 
ATOM      6  C   UNL     1      51.456  51.049  21.617  1.00  0.00    +0.102 C 
ATOM      7  C   UNL     1      52.500  50.948  20.534  1.00  0.00    +0.220 C 
ATOM      8  O   UNL     1      53.211  49.991  20.290  1.00  0.00    -0.275 OA
ATOM      9  H   UNL     1      53.046  52.173  18.961  1.00  0.00    +0.164 HD
BRANCH   3  10
ATOM     10  C   UNL     1      51.709  54.487  20.010  1.00  0.00    +0.064 C 
BRANCH  10  11
ATOM     11  C   UNL     1      50.560  55.466  20.131  1.00  0.00    -0.046 A 
ATOM     12  C   UNL     1      50.365  56.178  21.326  1.00  0.00    +0.005 A 
ATOM     13  C   UNL     1      49.308  57.083  21.449  1.00  0.00    +0.021 A 
ATOM     14  C   UNL     1      48.438  57.280  20.380  1.00  0.00    +0.041 A 
ATOM     15  C   UNL     1      49.675  55.675  19.065  1.00  0.00    +0.005 A 
ATOM     16  C   UNL     1      48.618  56.581  19.189  1.00  0.00    +0.021 A 
ATOM     17 Cl   UNL     1      47.138  58.395  20.531  1.00  0.00    -0.084 Cl
ENDBRANCH  10  11
ENDBRANCH   3  10
ENDBRANCH   2   3
ENDBRANCH   1   2
BRANCH   1  18
ATOM     18  C   UNL     1      49.680  50.997  17.401  1.00  0.00    +0.220 C 
ATOM     19  O   UNL     1      48.978  50.966  16.402  1.00  0.00    -0.275 OA
ATOM     20  N   UNL     1      49.893  49.902  18.201  1.00  0.00    -0.356 N 
ATOM     21  H   UNL     1      50.425  50.031  19.056  1.00  0.00    +0.163 HD
BRANCH  20  22
ATOM     22  C   UNL     1      49.093  48.686  18.126  1.00  0.00    +0.124 C 
BRANCH  22  23
ATOM     23  C   UNL     1      47.704  48.735  18.769  1.00  0.00    +0.098 C 
BRANCH  23  24
ATOM     24  C   UNL     1      46.621  48.517  17.782  1.00  0.00    +0.126 A 
ATOM     25  N   UNL     1      45.310  48.416  18.144  1.00  0.00    -0.263 N 
ATOM     26  N   UNL     1      46.714  48.401  16.480  1.00  0.00    -0.212 NA
ATOM     27  N   UNL     1      44.519  48.244  17.076  1.00  0.00    -0.153 NA
ATOM     28  C   UNL     1      45.408  48.224  16.069  1.00  0.00    +0.181 A 
ATOM     29  H   UNL     1      44.908  48.461  19.074  1.00  0.00    +0.192 HD
BRANCH  28  30
ATOM     30  C   UNL     1      45.056  48.030  14.670  1.00  0.00    +0.024 A 
ATOM     31  C   UNL     1      43.784  47.572  14.325  1.00  0.00    +0.032 A 
ATOM     32  C   UNL     1      45.970  48.300  13.651  1.00  0.00    +0.032 A 
ATOM     33  C   UNL     1      43.483  47.402  12.983  1.00  0.00    +0.111 A 
ATOM     34  C   UNL     1      45.576  48.099  12.339  1.00  0.00    +0.111 A 
ATOM     35  N   UNL     1      44.351  47.656  11.982  1.00  0.00    -0.265 NA
ENDBRANCH  28  30
ENDBRANCH  23  24
ENDBRANCH  22  23
ENDBRANCH  20  22
ENDBRANCH   1  18
TORSDOF 9
ENDMDL
