MODEL 1
REMARK VINA RESULT:    -8.857      0.000      0.000
REMARK INTER + INTRA:         -15.576
REMARK INTER:                 -14.035
REMARK INTRA:                  -1.542
REMARK UNBOUND:                -1.542
REMARK SMILES CCCNC(=O)NC(=O)COC(=O)[C@H](Cc1c[nH]c2ccccc12)NC(=O)c1cccs1
REMARK SMILES IDX 11 1 10 2 8 3 4 4 5 5 6 6 7 7 9 8 3 11 2 12 1 13 12 14 13 15
REMARK SMILES IDX 14 16 15 17 16 18 17 19 24 20 18 21 19 22 23 23 20 24 22 25
REMARK SMILES IDX 21 26 25 28 26 29 27 30 28 32 29 33 32 34 30 35 31 36
REMARK H PARENT 4 9 7 10 18 27 25 31
ROOT
ATOM      1  O   UNL     1      51.806  52.231  18.717  1.00  0.00    -0.454 OA
ENDROOT
BRANCH   1   2
ATOM      2  C   UNL     1      52.518  52.088  19.944  1.00  0.00    +0.333 C 
BRANCH   2   3
ATOM      3  C   UNL     1      51.981  53.018  21.044  1.00  0.00    +0.266 C 
ATOM      4  N   UNL     1      51.853  56.602  20.840  1.00  0.00    -0.338 N 
ATOM      5  C   UNL     1      51.911  55.405  21.538  1.00  0.00    +0.321 C 
ATOM      6  O   UNL     1      51.961  55.341  22.757  1.00  0.00    -0.248 OA
ATOM      7  N   UNL     1      51.949  54.345  20.661  1.00  0.00    -0.275 N 
ATOM      8  O   UNL     1      51.557  52.565  22.103  1.00  0.00    -0.271 OA
ATOM      9  H   UNL     1      51.241  56.565  20.036  1.00  0.00    +0.165 HD
ATOM     10  H   UNL     1      52.278  54.584  19.739  1.00  0.00    +0.174 HD
BRANCH   4  11
ATOM     11  C   UNL     1      51.803  57.845  21.590  1.00  0.00    +0.117 C 
BRANCH  11  12
ATOM     12  C   UNL     1      53.018  58.727  21.317  1.00  0.00    +0.018 C 
ATOM     13  C   UNL     1      54.200  57.939  20.770  1.00  0.00    +0.006 C 
ENDBRANCH  11  12
ENDBRANCH   4  11
ENDBRANCH   2   3
ENDBRANCH   1   2
BRANCH   1  14
ATOM     14  C   UNL     1      50.600  51.577  18.703  1.00  0.00    +0.329 C 
ATOM     15  O   UNL     1      50.460  50.418  19.077  1.00  0.00    -0.250 OA
BRANCH  14  16
ATOM     16  C   UNL     1      49.499  52.446  18.072  1.00  0.00    +0.197 C 
BRANCH  16  17
ATOM     17  C   UNL     1      49.056  53.516  19.076  1.00  0.00    +0.074 C 
BRANCH  17  18
ATOM     18  C   UNL     1      48.676  54.822  18.457  1.00  0.00    -0.020 A 
ATOM     19  C   UNL     1      48.553  55.078  17.106  1.00  0.00    +0.087 A 
ATOM     20  C   UNL     1      48.400  56.049  19.142  1.00  0.00    +0.003 A 
ATOM     21  N   UNL     1      48.224  56.397  16.948  1.00  0.00    -0.361 N 
ATOM     22  C   UNL     1      48.125  57.014  18.173  1.00  0.00    +0.046 A 
ATOM     23  C   UNL     1      48.364  56.431  20.500  1.00  0.00    +0.010 A 
ATOM     24  C   UNL     1      47.819  58.343  18.493  1.00  0.00    +0.026 A 
ATOM     25  C   UNL     1      48.056  57.753  20.835  1.00  0.00    +0.001 A 
ATOM     26  C   UNL     1      47.789  58.695  19.845  1.00  0.00    +0.002 A 
ATOM     27  H   UNL     1      48.072  56.857  16.060  1.00  0.00    +0.166 HD
ENDBRANCH  17  18
ENDBRANCH  16  17
BRANCH  16  28
ATOM     28  N   UNL     1      48.339  51.617  17.711  1.00  0.00    -0.338 N 
ATOM     29  C   UNL     1      48.312  50.889  16.540  1.00  0.00    +0.262 C 
ATOM     30  O   UNL     1      49.160  51.055  15.665  1.00  0.00    -0.268 OA
ATOM     31  H   UNL     1      47.767  51.261  18.469  1.00  0.00    +0.164 HD
BRANCH  29  32
ATOM     32  C   UNL     1      47.238  49.912  16.420  1.00  0.00    +0.092 A 
ATOM     33  C   UNL     1      46.161  49.764  17.278  1.00  0.00    +0.025 A 
ATOM     34  S   UNL     1      47.164  48.772  15.138  1.00  0.00    -0.139 S 
ATOM     35  C   UNL     1      45.277  48.720  16.876  1.00  0.00    +0.012 A 
ATOM     36  C   UNL     1      45.707  48.098  15.724  1.00  0.00    +0.065 A 
ENDBRANCH  29  32
ENDBRANCH  16  28
ENDBRANCH  14  16
ENDBRANCH   1  14
TORSDOF 10
ENDMDL
MODEL 2
REMARK VINA RESULT:    -8.772      2.322      5.809
REMARK INTER + INTRA:         -15.442
REMARK INTER:                 -14.156
REMARK INTRA:                  -1.286
REMARK UNBOUND:                -1.542
REMARK SMILES CCCNC(=O)NC(=O)COC(=O)[C@H](Cc1c[nH]c2ccccc12)NC(=O)c1cccs1
REMARK SMILES IDX 11 1 10 2 8 3 4 4 5 5 6 6 7 7 9 8 3 11 2 12 1 13 12 14 13 15
REMARK SMILES IDX 14 16 15 17 16 18 17 19 24 20 18 21 19 22 23 23 20 24 22 25
REMARK SMILES IDX 21 26 25 28 26 29 27 30 28 32 29 33 32 34 30 35 31 36
REMARK H PARENT 4 9 7 10 18 27 25 31
ROOT
ATOM      1  O   UNL     1      52.231  51.533  20.568  1.00  0.00    -0.454 OA
ENDROOT
BRANCH   1   2
ATOM      2  C   UNL     1      52.394  50.128  20.381  1.00  0.00    +0.333 C 
BRANCH   2   3
ATOM      3  C   UNL     1      51.050  49.397  20.244  1.00  0.00    +0.266 C 
ATOM      4  N   UNL     1      49.302  48.845  17.154  1.00  0.00    -0.338 N 
ATOM      5  C   UNL     1      49.360  48.994  18.531  1.00  0.00    +0.321 C 
ATOM      6  O   UNL     1      48.375  48.956  19.252  1.00  0.00    -0.248 OA
ATOM      7  N   UNL     1      50.656  49.231  18.930  1.00  0.00    -0.275 N 
ATOM      8  O   UNL     1      50.470  48.949  21.230  1.00  0.00    -0.271 OA
ATOM      9  H   UNL     1      50.072  48.307  16.780  1.00  0.00    +0.165 HD
ATOM     10  H   UNL     1      51.250  49.601  18.204  1.00  0.00    +0.174 HD
BRANCH   4  11
ATOM     11  C   UNL     1      48.015  48.583  16.535  1.00  0.00    +0.117 C 
BRANCH  11  12
ATOM     12  C   UNL     1      48.126  48.455  15.018  1.00  0.00    +0.018 C 
ATOM     13  C   UNL     1      48.263  49.804  14.327  1.00  0.00    +0.006 C 
ENDBRANCH  11  12
ENDBRANCH   4  11
ENDBRANCH   2   3
ENDBRANCH   1   2
BRANCH   1  14
ATOM     14  C   UNL     1      52.337  52.257  19.407  1.00  0.00    +0.329 C 
ATOM     15  O   UNL     1      52.858  51.818  18.387  1.00  0.00    -0.250 OA
BRANCH  14  16
ATOM     16  C   UNL     1      51.818  53.692  19.593  1.00  0.00    +0.197 C 
BRANCH  16  17
ATOM     17  C   UNL     1      51.052  53.789  20.918  1.00  0.00    +0.074 C 
BRANCH  17  18
ATOM     18  C   UNL     1      50.907  55.181  21.445  1.00  0.00    -0.020 A 
ATOM     19  C   UNL     1      51.779  55.822  22.302  1.00  0.00    +0.087 A 
ATOM     20  C   UNL     1      49.831  56.089  21.184  1.00  0.00    +0.003 A 
ATOM     21  N   UNL     1      51.275  57.066  22.573  1.00  0.00    -0.361 N 
ATOM     22  C   UNL     1      50.088  57.256  21.905  1.00  0.00    +0.046 A 
ATOM     23  C   UNL     1      48.656  56.025  20.405  1.00  0.00    +0.010 A 
ATOM     24  C   UNL     1      49.227  58.361  21.889  1.00  0.00    +0.026 A 
ATOM     25  C   UNL     1      47.790  57.121  20.376  1.00  0.00    +0.001 A 
ATOM     26  C   UNL     1      48.072  58.272  21.109  1.00  0.00    +0.002 A 
ATOM     27  H   UNL     1      51.711  57.753  23.175  1.00  0.00    +0.166 HD
ENDBRANCH  17  18
ENDBRANCH  16  17
BRANCH  16  28
ATOM     28  N   UNL     1      50.915  54.055  18.490  1.00  0.00    -0.338 N 
ATOM     29  C   UNL     1      49.753  53.351  18.252  1.00  0.00    +0.262 C 
ATOM     30  O   UNL     1      49.525  52.284  18.817  1.00  0.00    -0.268 OA
ATOM     31  H   UNL     1      50.921  55.022  18.183  1.00  0.00    +0.164 HD
BRANCH  29  32
ATOM     32  C   UNL     1      48.820  53.960  17.312  1.00  0.00    +0.092 A 
ATOM     33  C   UNL     1      48.673  55.313  17.058  1.00  0.00    +0.025 A 
ATOM     34  S   UNL     1      47.741  53.033  16.351  1.00  0.00    -0.139 S 
ATOM     35  C   UNL     1      47.680  55.583  16.072  1.00  0.00    +0.012 A 
ATOM     36  C   UNL     1      47.094  54.427  15.604  1.00  0.00    +0.065 A 
ENDBRANCH  29  32
ENDBRANCH  16  28
ENDBRANCH  14  16
ENDBRANCH   1  14
TORSDOF 10
ENDMDL
MODEL 3
REMARK VINA RESULT:    -8.549      3.959      7.780
REMARK INTER + INTRA:         -15.089
REMARK INTER:                 -13.121
REMARK INTRA:                  -1.968
REMARK UNBOUND:                -1.542
REMARK SMILES CCCNC(=O)NC(=O)COC(=O)[C@H](Cc1c[nH]c2ccccc12)NC(=O)c1cccs1
REMARK SMILES IDX 11 1 10 2 8 3 4 4 5 5 6 6 7 7 9 8 3 11 2 12 1 13 12 14 13 15
REMARK SMILES IDX 14 16 15 17 16 18 17 19 24 20 18 21 19 22 23 23 20 24 22 25
REMARK SMILES IDX 21 26 25 28 26 29 27 30 28 32 29 33 32 34 30 35 31 36
REMARK H PARENT 4 9 7 10 18 27 25 31
ROOT
ATOM      1  O   UNL     1      48.349  56.470  16.883  1.00  0.00    -0.454 OA
ENDROOT
BRANCH   1   2
ATOM      2  C   UNL     1      47.730  55.457  16.092  1.00  0.00    +0.333 C 
BRANCH   2   3
ATOM      3  C   UNL     1      48.016  54.044  16.622  1.00  0.00    +0.266 C 
ATOM      4  N   UNL     1      50.009  53.285  19.513  1.00  0.00    -0.338 N 
ATOM      5  C   UNL     1      49.448  52.976  18.284  1.00  0.00    +0.321 C 
ATOM      6  O   UNL     1      49.627  51.911  17.712  1.00  0.00    -0.248 OA
ATOM      7  N   UNL     1      48.721  54.045  17.811  1.00  0.00    -0.275 N 
ATOM      8  O   UNL     1      47.567  53.052  16.054  1.00  0.00    -0.271 OA
ATOM      9  H   UNL     1      49.385  53.802  20.117  1.00  0.00    +0.165 HD
ATOM     10  H   UNL     1      48.989  54.933  18.206  1.00  0.00    +0.174 HD
BRANCH   4  11
ATOM     11  C   UNL     1      50.816  52.280  20.184  1.00  0.00    +0.117 C 
BRANCH  11  12
ATOM     12  C   UNL     1      50.794  52.449  21.701  1.00  0.00    +0.018 C 
ATOM     13  C   UNL     1      51.547  53.690  22.160  1.00  0.00    +0.006 C 
ENDBRANCH  11  12
ENDBRANCH   4  11
ENDBRANCH   2   3
ENDBRANCH   1   2
BRANCH   1  14
ATOM     14  C   UNL     1      47.533  57.544  17.137  1.00  0.00    +0.329 C 
ATOM     15  O   UNL     1      46.684  57.944  16.347  1.00  0.00    -0.250 OA
BRANCH  14  16
ATOM     16  C   UNL     1      47.895  58.219  18.469  1.00  0.00    +0.197 C 
BRANCH  16  17
ATOM     17  C   UNL     1      47.953  57.161  19.577  1.00  0.00    +0.074 C 
BRANCH  17  18
ATOM     18  C   UNL     1      49.036  57.383  20.585  1.00  0.00    -0.020 A 
ATOM     19  C   UNL     1      48.887  57.982  21.820  1.00  0.00    +0.087 A 
ATOM     20  C   UNL     1      50.420  57.045  20.446  1.00  0.00    +0.003 A 
ATOM     21  N   UNL     1      50.115  58.027  22.424  1.00  0.00    -0.361 N 
ATOM     22  C   UNL     1      51.068  57.463  21.610  1.00  0.00    +0.046 A 
ATOM     23  C   UNL     1      51.185  56.427  19.435  1.00  0.00    +0.010 A 
ATOM     24  C   UNL     1      52.445  57.297  21.810  1.00  0.00    +0.026 A 
ATOM     25  C   UNL     1      52.559  56.251  19.623  1.00  0.00    +0.001 A 
ATOM     26  C   UNL     1      53.179  56.680  20.794  1.00  0.00    +0.002 A 
ATOM     27  H   UNL     1      50.299  58.414  23.340  1.00  0.00    +0.166 HD
ENDBRANCH  17  18
ENDBRANCH  16  17
BRANCH  16  28
ATOM     28  N   UNL     1      46.883  59.227  18.822  1.00  0.00    -0.338 N 
ATOM     29  C   UNL     1      47.075  60.565  18.547  1.00  0.00    +0.262 C 
ATOM     30  O   UNL     1      48.168  60.991  18.181  1.00  0.00    -0.268 OA
ATOM     31  H   UNL     1      45.919  58.918  18.879  1.00  0.00    +0.164 HD
BRANCH  29  32
ATOM     32  C   UNL     1      45.906  61.421  18.699  1.00  0.00    +0.092 A 
ATOM     33  C   UNL     1      45.773  62.484  19.577  1.00  0.00    +0.025 A 
ATOM     34  S   UNL     1      44.482  61.216  17.761  1.00  0.00    -0.139 S 
ATOM     35  C   UNL     1      44.506  63.128  19.472  1.00  0.00    +0.012 A 
ATOM     36  C   UNL     1      43.706  62.537  18.519  1.00  0.00    +0.065 A 
ENDBRANCH  29  32
ENDBRANCH  16  28
ENDBRANCH  14  16
ENDBRANCH   1  14
TORSDOF 10
ENDMDL
MODEL 4
REMARK VINA RESULT:    -8.300      2.742      7.127
REMARK INTER + INTRA:         -14.694
REMARK INTER:                 -13.042
REMARK INTRA:                  -1.652
REMARK UNBOUND:                -1.542
REMARK SMILES CCCNC(=O)NC(=O)COC(=O)[C@H](Cc1c[nH]c2ccccc12)NC(=O)c1cccs1
REMARK SMILES IDX 11 1 10 2 8 3 4 4 5 5 6 6 7 7 9 8 3 11 2 12 1 13 12 14 13 15
REMARK SMILES IDX 14 16 15 17 16 18 17 19 24 20 18 21 19 22 23 23 20 24 22 25
REMARK SMILES IDX 21 26 25 28 26 29 27 30 28 32 29 33 32 34 30 35 31 36
REMARK H PARENT 4 9 7 10 18 27 25 31
ROOT
ATOM      1  O   UNL     1      48.200  51.880  17.631  1.00  0.00    -0.454 OA
ENDROOT
BRANCH   1   2
ATOM      2  C   UNL     1      47.515  52.590  16.601  1.00  0.00    +0.333 C 
BRANCH   2   3
ATOM      3  C   UNL     1      47.921  54.070  16.541  1.00  0.00    +0.266 C 
ATOM      4  N   UNL     1      49.140  55.993  19.320  1.00  0.00    -0.338 N 
ATOM      5  C   UNL     1      48.520  55.860  18.087  1.00  0.00    +0.321 C 
ATOM      6  O   UNL     1      48.071  56.805  17.456  1.00  0.00    -0.248 OA
ATOM      7  N   UNL     1      48.456  54.533  17.728  1.00  0.00    -0.275 N 
ATOM      8  O   UNL     1      47.838  54.707  15.494  1.00  0.00    -0.271 OA
ATOM      9  H   UNL     1      49.936  55.381  19.433  1.00  0.00    +0.165 HD
ATOM     10  H   UNL     1      48.519  53.892  18.504  1.00  0.00    +0.174 HD
BRANCH   4  11
ATOM     11  C   UNL     1      49.308  57.325  19.875  1.00  0.00    +0.117 C 
BRANCH  11  12
ATOM     12  C   UNL     1      48.410  57.558  21.087  1.00  0.00    +0.018 C 
ATOM     13  C   UNL     1      49.119  58.314  22.202  1.00  0.00    +0.006 C 
ENDBRANCH  11  12
ENDBRANCH   4  11
ENDBRANCH   2   3
ENDBRANCH   1   2
BRANCH   1  14
ATOM     14  C   UNL     1      49.173  51.035  17.160  1.00  0.00    +0.329 C 
ATOM     15  O   UNL     1      49.358  50.821  15.966  1.00  0.00    -0.250 OA
BRANCH  14  16
ATOM     16  C   UNL     1      49.912  50.334  18.312  1.00  0.00    +0.197 C 
BRANCH  16  17
ATOM     17  C   UNL     1      48.983  49.299  18.956  1.00  0.00    +0.074 C 
BRANCH  17  18
ATOM     18  C   UNL     1      48.392  48.319  17.994  1.00  0.00    -0.020 A 
ATOM     19  C   UNL     1      49.085  47.365  17.275  1.00  0.00    +0.087 A 
ATOM     20  C   UNL     1      47.014  48.206  17.621  1.00  0.00    +0.003 A 
ATOM     21  N   UNL     1      48.191  46.693  16.485  1.00  0.00    -0.361 N 
ATOM     22  C   UNL     1      46.921  47.185  16.675  1.00  0.00    +0.046 A 
ATOM     23  C   UNL     1      45.835  48.884  17.997  1.00  0.00    +0.010 A 
ATOM     24  C   UNL     1      45.709  46.810  16.082  1.00  0.00    +0.026 A 
ATOM     25  C   UNL     1      44.617  48.518  17.416  1.00  0.00    +0.001 A 
ATOM     26  C   UNL     1      44.556  47.496  16.472  1.00  0.00    +0.002 A 
ATOM     27  H   UNL     1      48.426  45.938  15.852  1.00  0.00    +0.166 HD
ENDBRANCH  17  18
ENDBRANCH  16  17
BRANCH  16  28
ATOM     28  N   UNL     1      50.316  51.315  19.331  1.00  0.00    -0.338 N 
ATOM     29  C   UNL     1      51.451  52.084  19.178  1.00  0.00    +0.262 C 
ATOM     30  O   UNL     1      52.269  51.846  18.291  1.00  0.00    -0.268 OA
ATOM     31  H   UNL     1      49.585  51.711  19.912  1.00  0.00    +0.164 HD
BRANCH  29  32
ATOM     32  C   UNL     1      51.601  53.192  20.112  1.00  0.00    +0.092 A 
ATOM     33  C   UNL     1      51.198  53.213  21.436  1.00  0.00    +0.025 A 
ATOM     34  S   UNL     1      52.339  54.679  19.670  1.00  0.00    -0.139 S 
ATOM     35  C   UNL     1      51.501  54.446  22.084  1.00  0.00    +0.012 A 
ATOM     36  C   UNL     1      52.124  55.333  21.235  1.00  0.00    +0.065 A 
ENDBRANCH  29  32
ENDBRANCH  16  28
ENDBRANCH  14  16
ENDBRANCH   1  14
TORSDOF 10
ENDMDL
MODEL 5
REMARK VINA RESULT:    -8.106      3.901      7.830
REMARK INTER + INTRA:         -14.386
REMARK INTER:                 -13.338
REMARK INTRA:                  -1.047
REMARK UNBOUND:                -1.542
REMARK SMILES CCCNC(=O)NC(=O)COC(=O)[C@H](Cc1c[nH]c2ccccc12)NC(=O)c1cccs1
REMARK SMILES IDX 11 1 10 2 8 3 4 4 5 5 6 6 7 7 9 8 3 11 2 12 1 13 12 14 13 15
REMARK SMILES IDX 14 16 15 17 16 18 17 19 24 20 18 21 19 22 23 23 20 24 22 25
REMARK SMILES IDX 21 26 25 28 26 29 27 30 28 32 29 33 32 34 30 35 31 36
REMARK H PARENT 4 9 7 10 18 27 25 31
ROOT
ATOM      1  O   UNL     1      48.113  56.250  17.755  1.00  0.00    -0.454 OA
ENDROOT
BRANCH   1   2
ATOM      2  C   UNL     1      47.881  57.510  17.128  1.00  0.00    +0.333 C 
BRANCH   2   3
ATOM      3  C   UNL     1      47.460  58.595  18.130  1.00  0.00    +0.266 C 
ATOM      4  N   UNL     1      46.612  61.980  17.278  1.00  0.00    -0.338 N 
ATOM      5  C   UNL     1      47.062  61.002  18.151  1.00  0.00    +0.321 C 
ATOM      6  O   UNL     1      47.415  61.235  19.297  1.00  0.00    -0.248 OA
ATOM      7  N   UNL     1      47.086  59.778  17.522  1.00  0.00    -0.275 N 
ATOM      8  O   UNL     1      47.398  58.355  19.333  1.00  0.00    -0.271 OA
ATOM      9  H   UNL     1      45.842  61.674  16.699  1.00  0.00    +0.165 HD
ATOM     10  H   UNL     1      47.132  59.832  16.516  1.00  0.00    +0.174 HD
BRANCH   4  11
ATOM     11  C   UNL     1      46.511  63.348  17.757  1.00  0.00    +0.117 C 
BRANCH  11  12
ATOM     12  C   UNL     1      47.038  64.352  16.735  1.00  0.00    +0.018 C 
ATOM     13  C   UNL     1      46.633  65.783  17.061  1.00  0.00    +0.006 C 
ENDBRANCH  11  12
ENDBRANCH   4  11
ENDBRANCH   2   3
ENDBRANCH   1   2
BRANCH   1  14
ATOM     14  C   UNL     1      48.261  55.214  16.868  1.00  0.00    +0.329 C 
ATOM     15  O   UNL     1      47.857  55.257  15.711  1.00  0.00    -0.250 OA
BRANCH  14  16
ATOM     16  C   UNL     1      48.896  53.987  17.542  1.00  0.00    +0.197 C 
BRANCH  16  17
ATOM     17  C   UNL     1      47.869  52.850  17.599  1.00  0.00    +0.074 C 
BRANCH  17  18
ATOM     18  C   UNL     1      48.450  51.485  17.413  1.00  0.00    -0.020 A 
ATOM     19  C   UNL     1      49.791  51.182  17.281  1.00  0.00    +0.087 A 
ATOM     20  C   UNL     1      47.729  50.252  17.308  1.00  0.00    +0.003 A 
ATOM     21  N   UNL     1      49.908  49.831  17.096  1.00  0.00    -0.361 N 
ATOM     22  C   UNL     1      48.667  49.238  17.108  1.00  0.00    +0.046 A 
ATOM     23  C   UNL     1      46.363  49.903  17.361  1.00  0.00    +0.010 A 
ATOM     24  C   UNL     1      48.306  47.893  16.952  1.00  0.00    +0.026 A 
ATOM     25  C   UNL     1      45.988  48.565  17.211  1.00  0.00    +0.001 A 
ATOM     26  C   UNL     1      46.947  47.575  17.009  1.00  0.00    +0.002 A 
ATOM     27  H   UNL     1      50.780  49.333  16.971  1.00  0.00    +0.166 HD
ENDBRANCH  17  18
ENDBRANCH  16  17
BRANCH  16  28
ATOM     28  N   UNL     1      49.320  54.318  18.911  1.00  0.00    -0.338 N 
ATOM     29  C   UNL     1      50.655  54.361  19.258  1.00  0.00    +0.262 C 
ATOM     30  O   UNL     1      51.526  53.937  18.502  1.00  0.00    -0.268 OA
ATOM     31  H   UNL     1      48.697  54.895  19.465  1.00  0.00    +0.164 HD
BRANCH  29  32
ATOM     32  C   UNL     1      50.957  54.952  20.556  1.00  0.00    +0.092 A 
ATOM     33  C   UNL     1      50.736  56.266  20.933  1.00  0.00    +0.025 A 
ATOM     34  S   UNL     1      51.651  54.051  21.842  1.00  0.00    -0.139 S 
ATOM     35  C   UNL     1      51.132  56.526  22.278  1.00  0.00    +0.012 A 
ATOM     36  C   UNL     1      51.647  55.403  22.887  1.00  0.00    +0.065 A 
ENDBRANCH  29  32
ENDBRANCH  16  28
ENDBRANCH  14  16
ENDBRANCH   1  14
TORSDOF 10
ENDMDL
