MODEL 1
REMARK VINA RESULT:    -6.862      0.000      0.000
REMARK INTER + INTRA:         -10.128
REMARK INTER:                  -9.670
REMARK INTRA:                  -0.458
REMARK UNBOUND:                -0.458
REMARK SMILES C=CCOc1c(Cl)cc(/C=N/NC(N)=O)cc1OCC
REMARK SMILES IDX 17 1 16 2 9 3 8 4 6 5 5 6 7 7 18 8 19 9 20 10 4 11 3 12 2 13
REMARK SMILES IDX 1 14 10 15 11 16 12 17 13 18 15 19 14 20
REMARK H PARENT 12 21 14 22 14 23
ROOT
ATOM      1  C   UNL     1      51.649  55.598  21.151  1.00  0.00    +0.163 A 
ATOM      2  C   UNL     1      52.001  54.247  21.222  1.00  0.00    +0.060 A 
ATOM      3  C   UNL     1      51.122  53.273  20.740  1.00  0.00    -0.000 A 
ATOM      4  C   UNL     1      49.887  53.634  20.193  1.00  0.00    +0.034 A 
ATOM      5  C   UNL     1      49.527  54.980  20.140  1.00  0.00    +0.087 A 
ATOM      6  C   UNL     1      50.395  55.962  20.638  1.00  0.00    +0.180 A 
ATOM      7 Cl   UNL     1      47.997  55.394  19.457  1.00  0.00    -0.080 Cl
ENDROOT
BRANCH   1   8
ATOM      8  O   UNL     1      52.457  56.605  21.609  1.00  0.00    -0.490 OA
BRANCH   8   9
ATOM      9  C   UNL     1      53.377  57.129  20.646  1.00  0.00    +0.226 C 
ATOM     10  C   UNL     1      54.418  57.942  21.395  1.00  0.00    +0.049 C 
ENDBRANCH   8   9
ENDBRANCH   1   8
BRANCH   6  11
ATOM     11  O   UNL     1      50.052  57.289  20.533  1.00  0.00    -0.484 OA
BRANCH  11  12
ATOM     12  C   UNL     1      49.432  57.746  21.740  1.00  0.00    +0.257 C 
BRANCH  12  13
ATOM     13  C   UNL     1      48.117  58.353  21.357  1.00  0.00    +0.006 C 
ATOM     14  C   UNL     1      47.794  58.766  20.123  1.00  0.00    +0.007 C 
ENDBRANCH  12  13
ENDBRANCH  11  12
ENDBRANCH   6  11
BRANCH   3  15
ATOM     15  C   UNL     1      51.531  51.854  20.812  1.00  0.00    +0.141 C 
ATOM     16  N   UNL     1      50.840  50.985  21.479  1.00  0.00    -0.179 NA
BRANCH  16  17
ATOM     17  N   UNL     1      51.260  49.679  21.441  1.00  0.00    -0.229 N 
ATOM     18  C   UNL     1      50.793  48.721  20.560  1.00  0.00    +0.332 C 
ATOM     19  O   UNL     1      50.078  48.891  19.580  1.00  0.00    -0.247 OA
ATOM     20  N   UNL     1      51.252  47.469  20.855  1.00  0.00    -0.350 N 
ATOM     21  H   UNL     1      51.584  49.342  22.339  1.00  0.00    +0.195 HD
ATOM     22  H   UNL     1      51.341  47.213  21.827  1.00  0.00    +0.161 HD
ATOM     23  H   UNL     1      50.836  46.754  20.270  1.00  0.00    +0.161 HD
ENDBRANCH  16  17
ENDBRANCH   3  15
TORSDOF 7
ENDMDL
MODEL 2
REMARK VINA RESULT:    -6.771      3.827      7.235
REMARK INTER + INTRA:         -10.000
REMARK INTER:                  -9.297
REMARK INTRA:                  -0.703
REMARK UNBOUND:                -0.458
REMARK SMILES C=CCOc1c(Cl)cc(/C=N/NC(N)=O)cc1OCC
REMARK SMILES IDX 17 1 16 2 9 3 8 4 6 5 5 6 7 7 18 8 19 9 20 10 4 11 3 12 2 13
REMARK SMILES IDX 1 14 10 15 11 16 12 17 13 18 15 19 14 20
REMARK H PARENT 12 21 14 22 14 23
ROOT
ATOM      1  C   UNL     1      49.912  51.394  17.961  1.00  0.00    +0.163 A 
ATOM      2  C   UNL     1      50.565  52.517  18.477  1.00  0.00    +0.060 A 
ATOM      3  C   UNL     1      51.198  52.443  19.722  1.00  0.00    -0.000 A 
ATOM      4  C   UNL     1      51.179  51.256  20.462  1.00  0.00    +0.034 A 
ATOM      5  C   UNL     1      50.512  50.142  19.955  1.00  0.00    +0.087 A 
ATOM      6  C   UNL     1      49.859  50.213  18.717  1.00  0.00    +0.180 A 
ATOM      7 Cl   UNL     1      50.509  48.691  20.891  1.00  0.00    -0.080 Cl
ENDROOT
BRANCH   1   8
ATOM      8  O   UNL     1      49.266  51.396  16.752  1.00  0.00    -0.490 OA
BRANCH   8   9
ATOM      9  C   UNL     1      48.462  52.552  16.497  1.00  0.00    +0.226 C 
ATOM     10  C   UNL     1      47.125  52.346  17.186  1.00  0.00    +0.049 C 
ENDBRANCH   8   9
ENDBRANCH   1   8
BRANCH   6  11
ATOM     11  O   UNL     1      49.249  49.094  18.204  1.00  0.00    -0.484 OA
BRANCH  11  12
ATOM     12  C   UNL     1      47.947  48.923  18.776  1.00  0.00    +0.257 C 
BRANCH  12  13
ATOM     13  C   UNL     1      46.996  48.689  17.641  1.00  0.00    +0.006 C 
ATOM     14  C   UNL     1      45.684  48.962  17.673  1.00  0.00    +0.007 C 
ENDBRANCH  12  13
ENDBRANCH  11  12
ENDBRANCH   6  11
BRANCH   3  15
ATOM     15  C   UNL     1      51.895  53.642  20.232  1.00  0.00    +0.141 C 
ATOM     16  N   UNL     1      51.271  54.764  20.402  1.00  0.00    -0.179 NA
BRANCH  16  17
ATOM     17  N   UNL     1      51.982  55.809  20.938  1.00  0.00    -0.229 N 
ATOM     18  C   UNL     1      52.045  56.118  22.285  1.00  0.00    +0.332 C 
ATOM     19  O   UNL     1      51.640  55.445  23.226  1.00  0.00    -0.247 OA
ATOM     20  N   UNL     1      52.679  57.304  22.522  1.00  0.00    -0.350 N 
ATOM     21  H   UNL     1      52.092  56.583  20.296  1.00  0.00    +0.195 HD
ATOM     22  H   UNL     1      52.529  58.060  21.871  1.00  0.00    +0.161 HD
ATOM     23  H   UNL     1      52.642  57.576  23.497  1.00  0.00    +0.161 HD
ENDBRANCH  16  17
ENDBRANCH   3  15
TORSDOF 7
ENDMDL
MODEL 3
REMARK VINA RESULT:    -6.721      3.697      7.045
REMARK INTER + INTRA:          -9.930
REMARK INTER:                  -9.388
REMARK INTRA:                  -0.542
REMARK UNBOUND:                -0.458
REMARK SMILES C=CCOc1c(Cl)cc(/C=N/NC(N)=O)cc1OCC
REMARK SMILES IDX 17 1 16 2 9 3 8 4 6 5 5 6 7 7 18 8 19 9 20 10 4 11 3 12 2 13
REMARK SMILES IDX 1 14 10 15 11 16 12 17 13 18 15 19 14 20
REMARK H PARENT 12 21 14 22 14 23
ROOT
ATOM      1  C   UNL     1      50.504  51.884  19.042  1.00  0.00    +0.163 A 
ATOM      2  C   UNL     1      50.847  53.026  19.770  1.00  0.00    +0.060 A 
ATOM      3  C   UNL     1      50.221  54.245  19.488  1.00  0.00    -0.000 A 
ATOM      4  C   UNL     1      49.258  54.335  18.478  1.00  0.00    +0.034 A 
ATOM      5  C   UNL     1      48.929  53.199  17.740  1.00  0.00    +0.087 A 
ATOM      6  C   UNL     1      49.566  51.978  18.003  1.00  0.00    +0.180 A 
ATOM      7 Cl   UNL     1      47.735  53.342  16.502  1.00  0.00    -0.080 Cl
ENDROOT
BRANCH   1   8
ATOM      8  O   UNL     1      51.080  50.659  19.259  1.00  0.00    -0.490 OA
BRANCH   8   9
ATOM      9  C   UNL     1      51.090  50.228  20.624  1.00  0.00    +0.226 C 
ATOM     10  C   UNL     1      50.465  48.845  20.676  1.00  0.00    +0.049 C 
ENDBRANCH   8   9
ENDBRANCH   1   8
BRANCH   6  11
ATOM     11  O   UNL     1      49.197  50.854  17.304  1.00  0.00    -0.484 OA
BRANCH  11  12
ATOM     12  C   UNL     1      48.187  50.127  18.012  1.00  0.00    +0.257 C 
BRANCH  12  13
ATOM     13  C   UNL     1      47.032  49.950  17.074  1.00  0.00    +0.006 C 
ATOM     14  C   UNL     1      45.848  49.420  17.409  1.00  0.00    +0.007 C 
ENDBRANCH  12  13
ENDBRANCH  11  12
ENDBRANCH   6  11
BRANCH   3  15
ATOM     15  C   UNL     1      50.592  55.431  20.287  1.00  0.00    +0.141 C 
ATOM     16  N   UNL     1      51.514  56.251  19.891  1.00  0.00    -0.179 NA
BRANCH  16  17
ATOM     17  N   UNL     1      51.751  57.359  20.665  1.00  0.00    -0.229 N 
ATOM     18  C   UNL     1      52.957  57.660  21.272  1.00  0.00    +0.332 C 
ATOM     19  O   UNL     1      54.039  57.112  21.097  1.00  0.00    -0.247 OA
ATOM     20  N   UNL     1      52.866  58.726  22.121  1.00  0.00    -0.350 N 
ATOM     21  H   UNL     1      50.919  57.704  21.128  1.00  0.00    +0.195 HD
ATOM     22  H   UNL     1      52.025  58.825  22.669  1.00  0.00    +0.161 HD
ATOM     23  H   UNL     1      53.723  58.887  22.636  1.00  0.00    +0.161 HD
ENDBRANCH  16  17
ENDBRANCH   3  15
TORSDOF 7
ENDMDL
MODEL 4
REMARK VINA RESULT:    -6.337      2.599      3.505
REMARK INTER + INTRA:          -9.389
REMARK INTER:                  -8.739
REMARK INTRA:                  -0.650
REMARK UNBOUND:                -0.458
REMARK SMILES C=CCOc1c(Cl)cc(/C=N/NC(N)=O)cc1OCC
REMARK SMILES IDX 17 1 16 2 9 3 8 4 6 5 5 6 7 7 18 8 19 9 20 10 4 11 3 12 2 13
REMARK SMILES IDX 1 14 10 15 11 16 12 17 13 18 15 19 14 20
REMARK H PARENT 12 21 14 22 14 23
ROOT
ATOM      1  C   UNL     1      49.809  55.341  19.047  1.00  0.00    +0.163 A 
ATOM      2  C   UNL     1      49.750  54.020  18.594  1.00  0.00    +0.060 A 
ATOM      3  C   UNL     1      50.275  52.990  19.381  1.00  0.00    -0.000 A 
ATOM      4  C   UNL     1      50.867  53.269  20.616  1.00  0.00    +0.034 A 
ATOM      5  C   UNL     1      50.943  54.588  21.060  1.00  0.00    +0.087 A 
ATOM      6  C   UNL     1      50.437  55.628  20.268  1.00  0.00    +0.180 A 
ATOM      7 Cl   UNL     1      51.679  54.899  22.590  1.00  0.00    -0.080 Cl
ENDROOT
BRANCH   1   8
ATOM      8  O   UNL     1      49.321  56.400  18.326  1.00  0.00    -0.490 OA
BRANCH   8   9
ATOM      9  C   UNL     1      48.403  56.053  17.285  1.00  0.00    +0.226 C 
ATOM     10  C   UNL     1      47.828  57.343  16.727  1.00  0.00    +0.049 C 
ENDBRANCH   8   9
ENDBRANCH   1   8
BRANCH   6  11
ATOM     11  O   UNL     1      50.472  56.919  20.738  1.00  0.00    -0.484 OA
BRANCH  11  12
ATOM     12  C   UNL     1      49.409  57.146  21.670  1.00  0.00    +0.257 C 
BRANCH  12  13
ATOM     13  C   UNL     1      48.538  58.221  21.093  1.00  0.00    +0.006 C 
ATOM     14  C   UNL     1      47.288  58.036  20.647  1.00  0.00    +0.007 C 
ENDBRANCH  12  13
ENDBRANCH  11  12
ENDBRANCH   6  11
BRANCH   3  15
ATOM     15  C   UNL     1      50.179  51.602  18.883  1.00  0.00    +0.141 C 
ATOM     16  N   UNL     1      49.260  51.249  18.041  1.00  0.00    -0.179 NA
BRANCH  16  17
ATOM     17  N   UNL     1      49.284  49.955  17.584  1.00  0.00    -0.229 N 
ATOM     18  C   UNL     1      48.668  48.883  18.204  1.00  0.00    +0.332 C 
ATOM     19  O   UNL     1      47.876  48.914  19.138  1.00  0.00    -0.247 OA
ATOM     20  N   UNL     1      48.996  47.687  17.632  1.00  0.00    -0.350 N 
ATOM     21  H   UNL     1      50.111  49.743  17.040  1.00  0.00    +0.195 HD
ATOM     22  H   UNL     1      49.942  47.562  17.303  1.00  0.00    +0.161 HD
ATOM     23  H   UNL     1      48.622  46.896  18.143  1.00  0.00    +0.161 HD
ENDBRANCH  16  17
ENDBRANCH   3  15
TORSDOF 7
ENDMDL
MODEL 5
REMARK VINA RESULT:    -6.271      4.693      6.268
REMARK INTER + INTRA:          -9.296
REMARK INTER:                  -8.643
REMARK INTRA:                  -0.653
REMARK UNBOUND:                -0.458
REMARK SMILES C=CCOc1c(Cl)cc(/C=N/NC(N)=O)cc1OCC
REMARK SMILES IDX 17 1 16 2 9 3 8 4 6 5 5 6 7 7 18 8 19 9 20 10 4 11 3 12 2 13
REMARK SMILES IDX 1 14 10 15 11 16 12 17 13 18 15 19 14 20
REMARK H PARENT 12 21 14 22 14 23
ROOT
ATOM      1  C   UNL     1      49.931  50.687  18.523  1.00  0.00    +0.163 A 
ATOM      2  C   UNL     1      49.199  49.505  18.382  1.00  0.00    +0.060 A 
ATOM      3  C   UNL     1      48.005  49.508  17.652  1.00  0.00    -0.000 A 
ATOM      4  C   UNL     1      47.531  50.686  17.067  1.00  0.00    +0.034 A 
ATOM      5  C   UNL     1      48.252  51.869  17.223  1.00  0.00    +0.087 A 
ATOM      6  C   UNL     1      49.439  51.878  17.969  1.00  0.00    +0.180 A 
ATOM      7 Cl   UNL     1      47.640  53.306  16.487  1.00  0.00    -0.080 Cl
ENDROOT
BRANCH   1   8
ATOM      8  O   UNL     1      51.104  50.759  19.227  1.00  0.00    -0.490 OA
BRANCH   8   9
ATOM      9  C   UNL     1      50.993  50.459  20.622  1.00  0.00    +0.226 C 
ATOM     10  C   UNL     1      52.022  51.297  21.359  1.00  0.00    +0.049 C 
ENDBRANCH   8   9
ENDBRANCH   1   8
BRANCH   6  11
ATOM     11  O   UNL     1      50.167  53.039  18.073  1.00  0.00    -0.484 OA
BRANCH  11  12
ATOM     12  C   UNL     1      49.701  53.830  19.172  1.00  0.00    +0.257 C 
BRANCH  12  13
ATOM     13  C   UNL     1      50.908  54.433  19.824  1.00  0.00    +0.006 C 
ATOM     14  C   UNL     1      50.942  54.917  21.073  1.00  0.00    +0.007 C 
ENDBRANCH  12  13
ENDBRANCH  11  12
ENDBRANCH   6  11
BRANCH   3  15
ATOM     15  C   UNL     1      47.264  48.238  17.506  1.00  0.00    +0.141 C 
ATOM     16  N   UNL     1      46.363  48.084  16.588  1.00  0.00    -0.179 NA
BRANCH  16  17
ATOM     17  N   UNL     1      45.769  46.851  16.485  1.00  0.00    -0.229 N 
ATOM     18  C   UNL     1      44.485  46.626  16.023  1.00  0.00    +0.332 C 
ATOM     19  O   UNL     1      43.735  47.427  15.478  1.00  0.00    -0.247 OA
ATOM     20  N   UNL     1      44.088  45.330  16.189  1.00  0.00    -0.350 N 
ATOM     21  H   UNL     1      46.127  46.182  17.155  1.00  0.00    +0.195 HD
ATOM     22  H   UNL     1      44.379  44.848  17.026  1.00  0.00    +0.161 HD
ATOM     23  H   UNL     1      43.117  45.186  15.938  1.00  0.00    +0.161 HD
ENDBRANCH  16  17
ENDBRANCH   3  15
TORSDOF 7
ENDMDL
