MODEL 1
REMARK VINA RESULT:    -8.870      0.000      0.000
REMARK INTER + INTRA:         -12.591
REMARK INTER:                 -11.982
REMARK INTRA:                  -0.610
REMARK UNBOUND:                -0.610
REMARK SMILES COc1ccc(/C=C/C(=O)NC(=S)NNC(=S)Nc2ccccc2)cc1OC
REMARK SMILES IDX 7 1 8 2 6 3 3 4 4 5 26 6 5 7 25 8 2 9 1 10 27 11 28 12 9 13
REMARK SMILES IDX 10 14 11 15 12 16 13 17 14 18 15 21 16 22 17 23 18 24 19 27
REMARK SMILES IDX 20 28 24 29 21 30 23 31 22 32
REMARK H PARENT 11 19 14 20 15 25 18 26
ROOT
ATOM      1  C   UNL     1      48.621  55.058  19.762  1.00  0.00    +0.014 C 
ATOM      2  C   UNL     1      49.815  54.598  20.166  1.00  0.00    +0.072 C 
ENDROOT
BRANCH   1   3
ATOM      3  C   UNL     1      48.302  56.489  19.662  1.00  0.00    -0.022 A 
ATOM      4  C   UNL     1      47.620  59.212  19.408  1.00  0.00    +0.160 A 
ATOM      5  C   UNL     1      47.929  58.671  20.661  1.00  0.00    +0.051 A 
ATOM      6  C   UNL     1      47.642  58.380  18.272  1.00  0.00    +0.161 A 
ATOM      7  C   UNL     1      48.262  57.320  20.786  1.00  0.00    +0.012 A 
ATOM      8  C   UNL     1      47.976  57.026  18.408  1.00  0.00    +0.058 A 
BRANCH   4   9
ATOM      9  O   UNL     1      47.283  60.524  19.191  1.00  0.00    -0.493 OA
ATOM     10  C   UNL     1      45.908  60.874  19.267  1.00  0.00    +0.278 C 
ENDBRANCH   4   9
BRANCH   6  11
ATOM     11  O   UNL     1      47.321  58.983  17.080  1.00  0.00    -0.493 OA
ATOM     12  C   UNL     1      46.456  58.288  16.194  1.00  0.00    +0.278 C 
ENDBRANCH   6  11
ENDBRANCH   1   3
BRANCH   2  13
ATOM     13  C   UNL     1      50.147  53.153  20.296  1.00  0.00    +0.250 C 
ATOM     14  O   UNL     1      50.552  52.738  21.373  1.00  0.00    -0.270 OA
ATOM     15  N   UNL     1      50.003  52.438  19.119  1.00  0.00    -0.298 N 
ATOM     16  C   UNL     1      50.294  51.117  18.822  1.00  0.00    +0.192 C 
ATOM     17  S   UNL     1      50.895  49.938  19.831  1.00  0.00    -0.039 S 
ATOM     18  N   UNL     1      50.028  50.786  17.508  1.00  0.00    -0.274 N 
ATOM     19  H   UNL     1      49.780  52.966  18.289  1.00  0.00    +0.172 HD
ATOM     20  H   UNL     1      50.293  49.864  17.163  1.00  0.00    +0.190 HD
BRANCH  18  21
ATOM     21  N   UNL     1      49.478  51.712  16.595  1.00  0.00    -0.275 N 
ATOM     22  C   UNL     1      48.157  52.038  16.706  1.00  0.00    +0.189 C 
ATOM     23  S   UNL     1      47.706  53.627  16.454  1.00  0.00    -0.039 S 
ATOM     24  N   UNL     1      47.225  51.136  17.098  1.00  0.00    -0.331 N 
ATOM     25  H   UNL     1      50.057  52.546  16.483  1.00  0.00    +0.190 HD
ATOM     26  H   UNL     1      46.367  51.563  17.431  1.00  0.00    +0.169 HD
BRANCH  24  27
ATOM     27  C   UNL     1      47.159  49.736  16.935  1.00  0.00    +0.040 A 
ATOM     28  C   UNL     1      47.285  49.093  15.702  1.00  0.00    +0.026 A 
ATOM     29  C   UNL     1      46.883  48.971  18.073  1.00  0.00    +0.026 A 
ATOM     30  C   UNL     1      47.194  47.702  15.617  1.00  0.00    +0.002 A 
ATOM     31  C   UNL     1      46.790  47.580  17.989  1.00  0.00    +0.002 A 
ATOM     32  C   UNL     1      46.954  46.944  16.760  1.00  0.00    +0.000 A 
ENDBRANCH  24  27
ENDBRANCH  18  21
ENDBRANCH   2  13
TORSDOF 6
ENDMDL
MODEL 2
REMARK VINA RESULT:    -8.742      3.679      8.813
REMARK INTER + INTRA:         -12.419
REMARK INTER:                 -11.812
REMARK INTRA:                  -0.606
REMARK UNBOUND:                -0.610
REMARK SMILES COc1ccc(/C=C/C(=O)NC(=S)NNC(=S)Nc2ccccc2)cc1OC
REMARK SMILES IDX 7 1 8 2 6 3 3 4 4 5 26 6 5 7 25 8 2 9 1 10 27 11 28 12 9 13
REMARK SMILES IDX 10 14 11 15 12 16 13 17 14 18 15 21 16 22 17 23 18 24 19 27
REMARK SMILES IDX 20 28 24 29 21 30 23 31 22 32
REMARK H PARENT 11 19 14 20 15 25 18 26
ROOT
ATOM      1  C   UNL     1      47.934  49.706  18.044  1.00  0.00    +0.014 C 
ATOM      2  C   UNL     1      48.970  49.197  18.727  1.00  0.00    +0.072 C 
ENDROOT
BRANCH   1   3
ATOM      3  C   UNL     1      46.827  48.886  17.531  1.00  0.00    -0.022 A 
ATOM      4  C   UNL     1      44.755  47.302  16.465  1.00  0.00    +0.160 A 
ATOM      5  C   UNL     1      45.154  47.147  17.796  1.00  0.00    +0.051 A 
ATOM      6  C   UNL     1      45.406  48.253  15.654  1.00  0.00    +0.161 A 
ATOM      7  C   UNL     1      46.185  47.929  18.323  1.00  0.00    +0.012 A 
ATOM      8  C   UNL     1      46.440  49.032  16.191  1.00  0.00    +0.058 A 
BRANCH   4   9
ATOM      9  O   UNL     1      43.755  46.580  15.864  1.00  0.00    -0.493 OA
ATOM     10  C   UNL     1      44.057  45.258  15.441  1.00  0.00    +0.278 C 
ENDBRANCH   4   9
BRANCH   6  11
ATOM     11  O   UNL     1      44.962  48.341  14.357  1.00  0.00    -0.493 OA
ATOM     12  C   UNL     1      45.851  47.949  13.321  1.00  0.00    +0.278 C 
ENDBRANCH   6  11
ENDBRANCH   1   3
BRANCH   2  13
ATOM     13  C   UNL     1      50.111  50.009  19.232  1.00  0.00    +0.250 C 
ATOM     14  O   UNL     1      51.075  49.431  19.715  1.00  0.00    -0.270 OA
ATOM     15  N   UNL     1      49.909  51.375  19.139  1.00  0.00    -0.298 N 
ATOM     16  C   UNL     1      50.685  52.437  19.577  1.00  0.00    +0.192 C 
ATOM     17  S   UNL     1      52.161  52.391  20.344  1.00  0.00    -0.039 S 
ATOM     18  N   UNL     1      50.117  53.667  19.313  1.00  0.00    -0.274 N 
ATOM     19  H   UNL     1      48.999  51.682  18.831  1.00  0.00    +0.172 HD
ATOM     20  H   UNL     1      50.563  54.509  19.675  1.00  0.00    +0.190 HD
BRANCH  18  21
ATOM     21  N   UNL     1      48.888  53.799  18.630  1.00  0.00    -0.275 N 
ATOM     22  C   UNL     1      48.681  54.908  17.861  1.00  0.00    +0.189 C 
ATOM     23  S   UNL     1      47.885  54.727  16.403  1.00  0.00    -0.039 S 
ATOM     24  N   UNL     1      49.175  56.123  18.204  1.00  0.00    -0.331 N 
ATOM     25  H   UNL     1      48.622  52.948  18.132  1.00  0.00    +0.190 HD
ATOM     26  H   UNL     1      49.218  56.773  17.426  1.00  0.00    +0.169 HD
BRANCH  24  27
ATOM     27  C   UNL     1      49.439  56.697  19.465  1.00  0.00    +0.040 A 
ATOM     28  C   UNL     1      50.692  56.676  20.079  1.00  0.00    +0.026 A 
ATOM     29  C   UNL     1      48.356  57.255  20.154  1.00  0.00    +0.026 A 
ATOM     30  C   UNL     1      50.874  57.254  21.337  1.00  0.00    +0.002 A 
ATOM     31  C   UNL     1      48.537  57.832  21.413  1.00  0.00    +0.002 A 
ATOM     32  C   UNL     1      49.799  57.838  22.002  1.00  0.00    +0.000 A 
ENDBRANCH  24  27
ENDBRANCH  18  21
ENDBRANCH   2  13
TORSDOF 6
ENDMDL
MODEL 3
REMARK VINA RESULT:    -8.639      3.484      8.851
REMARK INTER + INTRA:         -12.279
REMARK INTER:                 -11.844
REMARK INTRA:                  -0.435
REMARK UNBOUND:                -0.610
REMARK SMILES COc1ccc(/C=C/C(=O)NC(=S)NNC(=S)Nc2ccccc2)cc1OC
REMARK SMILES IDX 7 1 8 2 6 3 3 4 4 5 26 6 5 7 25 8 2 9 1 10 27 11 28 12 9 13
REMARK SMILES IDX 10 14 11 15 12 16 13 17 14 18 15 21 16 22 17 23 18 24 19 27
REMARK SMILES IDX 20 28 24 29 21 30 23 31 22 32
REMARK H PARENT 11 19 14 20 15 25 18 26
ROOT
ATOM      1  C   UNL     1      48.211  50.218  17.496  1.00  0.00    +0.014 C 
ATOM      2  C   UNL     1      49.183  49.792  18.317  1.00  0.00    +0.072 C 
ENDROOT
BRANCH   1   3
ATOM      3  C   UNL     1      47.111  49.359  17.038  1.00  0.00    -0.022 A 
ATOM      4  C   UNL     1      44.940  47.762  16.214  1.00  0.00    +0.160 A 
ATOM      5  C   UNL     1      45.906  48.177  15.292  1.00  0.00    +0.051 A 
ATOM      6  C   UNL     1      45.054  48.158  17.561  1.00  0.00    +0.161 A 
ATOM      7  C   UNL     1      46.980  48.973  15.700  1.00  0.00    +0.012 A 
ATOM      8  C   UNL     1      46.134  48.957  17.961  1.00  0.00    +0.058 A 
BRANCH   4   9
ATOM      9  O   UNL     1      43.855  46.981  15.903  1.00  0.00    -0.493 OA
ATOM     10  C   UNL     1      44.100  45.729  15.278  1.00  0.00    +0.278 C 
ENDBRANCH   4   9
BRANCH   6  11
ATOM     11  O   UNL     1      44.064  47.716  18.403  1.00  0.00    -0.493 OA
ATOM     12  C   UNL     1      44.452  47.035  19.588  1.00  0.00    +0.278 C 
ENDBRANCH   6  11
ENDBRANCH   1   3
BRANCH   2  13
ATOM     13  C   UNL     1      50.318  50.641  18.771  1.00  0.00    +0.250 C 
ATOM     14  O   UNL     1      51.313  50.096  19.230  1.00  0.00    -0.270 OA
ATOM     15  N   UNL     1      50.076  52.000  18.666  1.00  0.00    -0.298 N 
ATOM     16  C   UNL     1      50.838  53.088  19.061  1.00  0.00    +0.192 C 
ATOM     17  S   UNL     1      52.340  53.094  19.778  1.00  0.00    -0.039 S 
ATOM     18  N   UNL     1      50.229  54.299  18.799  1.00  0.00    -0.274 N 
ATOM     19  H   UNL     1      49.149  52.277  18.384  1.00  0.00    +0.172 HD
ATOM     20  H   UNL     1      50.663  55.158  19.134  1.00  0.00    +0.190 HD
BRANCH  18  21
ATOM     21  N   UNL     1      48.975  54.388  18.156  1.00  0.00    -0.275 N 
ATOM     22  C   UNL     1      48.617  55.571  17.575  1.00  0.00    +0.189 C 
ATOM     23  S   UNL     1      47.809  55.527  16.114  1.00  0.00    -0.039 S 
ATOM     24  N   UNL     1      48.974  56.767  18.104  1.00  0.00    -0.331 N 
ATOM     25  H   UNL     1      48.796  53.600  17.531  1.00  0.00    +0.190 HD
ATOM     26  H   UNL     1      48.919  57.532  17.439  1.00  0.00    +0.169 HD
BRANCH  24  27
ATOM     27  C   UNL     1      49.204  57.164  19.438  1.00  0.00    +0.040 A 
ATOM     28  C   UNL     1      50.428  57.012  20.091  1.00  0.00    +0.026 A 
ATOM     29  C   UNL     1      48.113  57.672  20.151  1.00  0.00    +0.026 A 
ATOM     30  C   UNL     1      50.576  57.416  21.420  1.00  0.00    +0.002 A 
ATOM     31  C   UNL     1      48.259  58.075  21.481  1.00  0.00    +0.002 A 
ATOM     32  C   UNL     1      49.494  57.954  22.113  1.00  0.00    +0.000 A 
ENDBRANCH  24  27
ENDBRANCH  18  21
ENDBRANCH   2  13
TORSDOF 6
ENDMDL
MODEL 4
REMARK VINA RESULT:    -7.893      3.876      9.310
REMARK INTER + INTRA:         -11.271
REMARK INTER:                 -10.435
REMARK INTRA:                  -0.835
REMARK UNBOUND:                -0.610
REMARK SMILES COc1ccc(/C=C/C(=O)NC(=S)NNC(=S)Nc2ccccc2)cc1OC
REMARK SMILES IDX 7 1 8 2 6 3 3 4 4 5 26 6 5 7 25 8 2 9 1 10 27 11 28 12 9 13
REMARK SMILES IDX 10 14 11 15 12 16 13 17 14 18 15 21 16 22 17 23 18 24 19 27
REMARK SMILES IDX 20 28 24 29 21 30 23 31 22 32
REMARK H PARENT 11 19 14 20 15 25 18 26
ROOT
ATOM      1  C   UNL     1      49.021  54.169  18.917  1.00  0.00    +0.014 C 
ATOM      2  C   UNL     1      49.890  54.459  19.897  1.00  0.00    +0.072 C 
ENDROOT
BRANCH   1   3
ATOM      3  C   UNL     1      49.086  52.934  18.123  1.00  0.00    -0.022 A 
ATOM      4  C   UNL     1      49.197  50.514  16.682  1.00  0.00    +0.160 A 
ATOM      5  C   UNL     1      48.520  51.621  16.160  1.00  0.00    +0.051 A 
ATOM      6  C   UNL     1      49.817  50.614  17.943  1.00  0.00    +0.161 A 
ATOM      7  C   UNL     1      48.461  52.819  16.878  1.00  0.00    +0.012 A 
ATOM      8  C   UNL     1      49.751  51.819  18.655  1.00  0.00    +0.058 A 
BRANCH   4   9
ATOM      9  O   UNL     1      49.306  49.302  16.049  1.00  0.00    -0.493 OA
ATOM     10  C   UNL     1      49.883  49.284  14.751  1.00  0.00    +0.278 C 
ENDBRANCH   4   9
BRANCH   6  11
ATOM     11  O   UNL     1      50.456  49.484  18.390  1.00  0.00    -0.493 OA
ATOM     12  C   UNL     1      50.027  48.919  19.620  1.00  0.00    +0.278 C 
ENDBRANCH   6  11
ENDBRANCH   1   3
BRANCH   2  13
ATOM     13  C   UNL     1      49.854  55.716  20.693  1.00  0.00    +0.250 C 
ATOM     14  O   UNL     1      50.567  55.805  21.682  1.00  0.00    -0.270 OA
ATOM     15  N   UNL     1      48.938  56.645  20.229  1.00  0.00    -0.298 N 
ATOM     16  C   UNL     1      48.556  57.873  20.744  1.00  0.00    +0.192 C 
ATOM     17  S   UNL     1      49.123  58.647  22.104  1.00  0.00    -0.039 S 
ATOM     18  N   UNL     1      47.580  58.496  19.991  1.00  0.00    -0.274 N 
ATOM     19  H   UNL     1      48.338  56.355  19.473  1.00  0.00    +0.172 HD
ATOM     20  H   UNL     1      47.164  59.361  20.333  1.00  0.00    +0.190 HD
BRANCH  18  21
ATOM     21  N   UNL     1      47.073  57.932  18.801  1.00  0.00    -0.275 N 
ATOM     22  C   UNL     1      47.279  58.589  17.622  1.00  0.00    +0.189 C 
ATOM     23  S   UNL     1      47.635  57.689  16.260  1.00  0.00    -0.039 S 
ATOM     24  N   UNL     1      47.290  59.943  17.547  1.00  0.00    -0.331 N 
ATOM     25  H   UNL     1      47.291  56.937  18.712  1.00  0.00    +0.190 HD
ATOM     26  H   UNL     1      47.746  60.295  16.712  1.00  0.00    +0.169 HD
BRANCH  24  27
ATOM     27  C   UNL     1      46.613  60.921  18.304  1.00  0.00    +0.040 A 
ATOM     28  C   UNL     1      47.257  61.844  19.131  1.00  0.00    +0.026 A 
ATOM     29  C   UNL     1      45.215  60.908  18.263  1.00  0.00    +0.026 A 
ATOM     30  C   UNL     1      46.517  62.776  19.862  1.00  0.00    +0.002 A 
ATOM     31  C   UNL     1      44.474  61.839  18.996  1.00  0.00    +0.002 A 
ATOM     32  C   UNL     1      45.127  62.779  19.789  1.00  0.00    +0.000 A 
ENDBRANCH  24  27
ENDBRANCH  18  21
ENDBRANCH   2  13
TORSDOF 6
ENDMDL
MODEL 5
REMARK VINA RESULT:    -7.635      5.666      8.443
REMARK INTER + INTRA:         -10.923
REMARK INTER:                 -10.196
REMARK INTRA:                  -0.727
REMARK UNBOUND:                -0.610
REMARK SMILES COc1ccc(/C=C/C(=O)NC(=S)NNC(=S)Nc2ccccc2)cc1OC
REMARK SMILES IDX 7 1 8 2 6 3 3 4 4 5 26 6 5 7 25 8 2 9 1 10 27 11 28 12 9 13
REMARK SMILES IDX 10 14 11 15 12 16 13 17 14 18 15 21 16 22 17 23 18 24 19 27
REMARK SMILES IDX 20 28 24 29 21 30 23 31 22 32
REMARK H PARENT 11 19 14 20 15 25 18 26
ROOT
ATOM      1  C   UNL     1      47.870  58.089  20.117  1.00  0.00    +0.014 C 
ATOM      2  C   UNL     1      48.016  58.990  19.133  1.00  0.00    +0.072 C 
ENDROOT
BRANCH   1   3
ATOM      3  C   UNL     1      48.918  57.130  20.492  1.00  0.00    -0.022 A 
ATOM      4  C   UNL     1      50.940  55.339  21.295  1.00  0.00    +0.160 A 
ATOM      5  C   UNL     1      49.791  54.869  20.651  1.00  0.00    +0.051 A 
ATOM      6  C   UNL     1      51.076  56.717  21.550  1.00  0.00    +0.161 A 
ATOM      7  C   UNL     1      48.786  55.758  20.258  1.00  0.00    +0.012 A 
ATOM      8  C   UNL     1      50.063  57.600  21.153  1.00  0.00    +0.058 A 
BRANCH   4   9
ATOM      9  O   UNL     1      51.975  54.541  21.715  1.00  0.00    -0.493 OA
ATOM     10  C   UNL     1      51.706  53.159  21.909  1.00  0.00    +0.278 C 
ENDBRANCH   4   9
BRANCH   6  11
ATOM     11  O   UNL     1      52.229  57.099  22.192  1.00  0.00    -0.493 OA
ATOM     12  C   UNL     1      52.865  58.294  21.762  1.00  0.00    +0.278 C 
ENDBRANCH   6  11
ENDBRANCH   1   3
BRANCH   2  13
ATOM     13  C   UNL     1      46.956  59.951  18.724  1.00  0.00    +0.250 C 
ATOM     14  O   UNL     1      46.689  60.884  19.469  1.00  0.00    -0.270 OA
ATOM     15  N   UNL     1      46.338  59.627  17.528  1.00  0.00    -0.298 N 
ATOM     16  C   UNL     1      45.267  60.214  16.874  1.00  0.00    +0.192 C 
ATOM     17  S   UNL     1      44.388  61.553  17.325  1.00  0.00    -0.039 S 
ATOM     18  N   UNL     1      44.930  59.570  15.700  1.00  0.00    -0.274 N 
ATOM     19  H   UNL     1      46.596  58.748  17.105  1.00  0.00    +0.172 HD
ATOM     20  H   UNL     1      44.100  59.867  15.190  1.00  0.00    +0.190 HD
BRANCH  18  21
ATOM     21  N   UNL     1      45.649  58.453  15.221  1.00  0.00    -0.275 N 
ATOM     22  C   UNL     1      45.302  57.919  14.013  1.00  0.00    +0.189 C 
ATOM     23  S   UNL     1      46.520  57.392  12.997  1.00  0.00    -0.039 S 
ATOM     24  N   UNL     1      44.017  57.885  13.584  1.00  0.00    -0.331 N 
ATOM     25  H   UNL     1      46.660  58.574  15.295  1.00  0.00    +0.190 HD
ATOM     26  H   UNL     1      43.930  57.755  12.581  1.00  0.00    +0.169 HD
BRANCH  24  27
ATOM     27  C   UNL     1      42.802  57.793  14.295  1.00  0.00    +0.040 A 
ATOM     28  C   UNL     1      42.415  56.669  15.026  1.00  0.00    +0.026 A 
ATOM     29  C   UNL     1      41.917  58.873  14.193  1.00  0.00    +0.026 A 
ATOM     30  C   UNL     1      41.188  56.646  15.693  1.00  0.00    +0.002 A 
ATOM     31  C   UNL     1      40.689  58.850  14.859  1.00  0.00    +0.002 A 
ATOM     32  C   UNL     1      40.328  57.738  15.616  1.00  0.00    +0.000 A 
ENDBRANCH  24  27
ENDBRANCH  18  21
ENDBRANCH   2  13
TORSDOF 6
ENDMDL
