MODEL 1
REMARK VINA RESULT:    -8.270      0.000      0.000
REMARK INTER + INTRA:         -11.416
REMARK INTER:                 -10.687
REMARK INTRA:                  -0.728
REMARK UNBOUND:                -0.728
REMARK SMILES Cc1cc(Cl)ccc1OCC(=O)NNC(=S)NC(=O)C(C)(C)C
REMARK SMILES IDX 11 1 12 2 13 3 10 5 9 6 8 7 2 8 3 9 4 10 7 11 6 12 1 13 5 14
REMARK SMILES IDX 14 15 15 16 16 17 17 18 18 19 19 20 20 23 21 24 22 25 23 26
REMARK H PARENT 13 4 14 21 17 22
ROOT
ATOM      1  C   UNL     1      48.569  52.205  17.099  1.00  0.00    +0.276 C 
ATOM      2  O   UNL     1      47.526  52.737  17.471  1.00  0.00    -0.269 OA
ATOM      3  N   UNL     1      49.795  52.395  17.715  1.00  0.00    -0.265 N 
ATOM      4  H   UNL     1      50.636  52.182  17.175  1.00  0.00    +0.191 HD
ENDROOT
BRANCH   1   5
ATOM      5  C   UNL     1      48.622  51.227  15.926  1.00  0.00    +0.331 C 
BRANCH   5   6
ATOM      6  O   UNL     1      48.678  49.858  16.304  1.00  0.00    -0.483 OA
BRANCH   6   7
ATOM      7  C   UNL     1      47.595  49.308  16.940  1.00  0.00    +0.123 A 
ATOM      8  C   UNL     1      47.850  48.793  18.226  1.00  0.00    -0.007 A 
ATOM      9  C   UNL     1      46.810  48.187  18.949  1.00  0.00    +0.027 A 
ATOM     10  C   UNL     1      45.533  48.101  18.401  1.00  0.00    +0.041 A 
ATOM     11  C   UNL     1      46.306  49.219  16.405  1.00  0.00    +0.048 A 
ATOM     12  C   UNL     1      45.278  48.616  17.135  1.00  0.00    +0.024 A 
ATOM     13  C   UNL     1      49.226  48.870  18.829  1.00  0.00    +0.048 C 
ATOM     14 Cl   UNL     1      44.266  47.355  19.293  1.00  0.00    -0.084 Cl
ENDBRANCH   6   7
ENDBRANCH   5   6
ENDBRANCH   1   5
BRANCH   3  15
ATOM     15  N   UNL     1      49.905  53.459  18.626  1.00  0.00    -0.274 N 
ATOM     16  C   UNL     1      50.547  53.293  19.829  1.00  0.00    +0.191 C 
ATOM     17  S   UNL     1      50.974  51.818  20.499  1.00  0.00    -0.039 S 
ATOM     18  N   UNL     1      50.820  54.435  20.545  1.00  0.00    -0.301 N 
ATOM     19  C   UNL     1      50.569  55.754  20.191  1.00  0.00    +0.231 C 
ATOM     20  O   UNL     1      50.055  56.064  19.119  1.00  0.00    -0.274 OA
ATOM     21  H   UNL     1      49.872  54.402  18.217  1.00  0.00    +0.190 HD
ATOM     22  H   UNL     1      51.270  54.254  21.432  1.00  0.00    +0.172 HD
BRANCH  19  23
ATOM     23  C   UNL     1      50.993  56.799  21.243  1.00  0.00    +0.041 C 
ATOM     24  C   UNL     1      52.008  57.777  20.632  1.00  0.00    +0.021 C 
ATOM     25  C   UNL     1      49.757  57.594  21.699  1.00  0.00    +0.021 C 
ATOM     26  C   UNL     1      51.605  56.097  22.465  1.00  0.00    +0.021 C 
ENDBRANCH  19  23
ENDBRANCH   3  15
TORSDOF 5
ENDMDL
MODEL 2
REMARK VINA RESULT:    -8.029      3.391      8.117
REMARK INTER + INTRA:         -11.104
REMARK INTER:                 -10.741
REMARK INTRA:                  -0.363
REMARK UNBOUND:                -0.728
REMARK SMILES Cc1cc(Cl)ccc1OCC(=O)NNC(=S)NC(=O)C(C)(C)C
REMARK SMILES IDX 11 1 12 2 13 3 10 5 9 6 8 7 2 8 3 9 4 10 7 11 6 12 1 13 5 14
REMARK SMILES IDX 14 15 15 16 16 17 17 18 18 19 19 20 20 23 21 24 22 25 23 26
REMARK H PARENT 13 4 14 21 17 22
ROOT
ATOM      1  C   UNL     1      51.804  52.585  20.533  1.00  0.00    +0.276 C 
ATOM      2  O   UNL     1      52.819  52.398  19.865  1.00  0.00    -0.269 OA
ATOM      3  N   UNL     1      50.593  51.957  20.292  1.00  0.00    -0.265 N 
ATOM      4  H   UNL     1      49.750  52.388  20.674  1.00  0.00    +0.191 HD
ENDROOT
BRANCH   1   5
ATOM      5  C   UNL     1      51.779  53.509  21.750  1.00  0.00    +0.331 C 
BRANCH   5   6
ATOM      6  O   UNL     1      52.009  54.880  21.451  1.00  0.00    -0.483 OA
BRANCH   6   7
ATOM      7  C   UNL     1      50.935  55.672  21.136  1.00  0.00    +0.123 A 
ATOM      8  C   UNL     1      51.113  57.049  21.370  1.00  0.00    -0.007 A 
ATOM      9  C   UNL     1      50.062  57.940  21.101  1.00  0.00    +0.027 A 
ATOM     10  C   UNL     1      48.851  57.465  20.603  1.00  0.00    +0.041 A 
ATOM     11  C   UNL     1      49.715  55.210  20.631  1.00  0.00    +0.048 A 
ATOM     12  C   UNL     1      48.675  56.106  20.366  1.00  0.00    +0.024 A 
ATOM     13  C   UNL     1      52.412  57.577  21.916  1.00  0.00    +0.048 C 
ATOM     14 Cl   UNL     1      47.567  58.563  20.280  1.00  0.00    -0.084 Cl
ENDBRANCH   6   7
ENDBRANCH   5   6
ENDBRANCH   1   5
BRANCH   3  15
ATOM     15  N   UNL     1      50.440  51.297  19.060  1.00  0.00    -0.274 N 
ATOM     16  C   UNL     1      50.297  49.932  19.006  1.00  0.00    +0.191 C 
ATOM     17  S   UNL     1      50.598  48.879  20.274  1.00  0.00    -0.039 S 
ATOM     18  N   UNL     1      49.911  49.400  17.798  1.00  0.00    -0.301 N 
ATOM     19  C   UNL     1      49.600  50.070  16.622  1.00  0.00    +0.231 C 
ATOM     20  O   UNL     1      49.624  51.296  16.533  1.00  0.00    -0.274 OA
ATOM     21  H   UNL     1      50.038  51.861  18.300  1.00  0.00    +0.190 HD
ATOM     22  H   UNL     1      49.845  48.391  17.807  1.00  0.00    +0.172 HD
BRANCH  19  23
ATOM     23  C   UNL     1      49.216  49.158  15.439  1.00  0.00    +0.041 C 
ATOM     24  C   UNL     1      48.913  47.740  15.947  1.00  0.00    +0.021 C 
ATOM     25  C   UNL     1      47.956  49.715  14.754  1.00  0.00    +0.021 C 
ATOM     26  C   UNL     1      50.358  49.119  14.412  1.00  0.00    +0.021 C 
ENDBRANCH  19  23
ENDBRANCH   3  15
TORSDOF 5
ENDMDL
MODEL 3
REMARK VINA RESULT:    -7.917      3.212      8.069
REMARK INTER + INTRA:         -10.959
REMARK INTER:                 -10.356
REMARK INTRA:                  -0.603
REMARK UNBOUND:                -0.728
REMARK SMILES Cc1cc(Cl)ccc1OCC(=O)NNC(=S)NC(=O)C(C)(C)C
REMARK SMILES IDX 11 1 12 2 13 3 10 5 9 6 8 7 2 8 3 9 4 10 7 11 6 12 1 13 5 14
REMARK SMILES IDX 14 15 15 16 16 17 17 18 18 19 19 20 20 23 21 24 22 25 23 26
REMARK H PARENT 13 4 14 21 17 22
ROOT
ATOM      1  C   UNL     1      51.755  52.130  18.699  1.00  0.00    +0.276 C 
ATOM      2  O   UNL     1      52.196  51.468  17.762  1.00  0.00    -0.269 OA
ATOM      3  N   UNL     1      50.575  51.839  19.364  1.00  0.00    -0.265 N 
ATOM      4  H   UNL     1      50.132  52.589  19.897  1.00  0.00    +0.191 HD
ENDROOT
BRANCH   1   5
ATOM      5  C   UNL     1      52.493  53.340  19.272  1.00  0.00    +0.331 C 
BRANCH   5   6
ATOM      6  O   UNL     1      52.049  54.592  18.767  1.00  0.00    -0.483 OA
BRANCH   6   7
ATOM      7  C   UNL     1      51.411  55.454  19.621  1.00  0.00    +0.123 A 
ATOM      8  C   UNL     1      50.029  55.610  19.398  1.00  0.00    -0.007 A 
ATOM      9  C   UNL     1      49.291  56.490  20.206  1.00  0.00    +0.027 A 
ATOM     10  C   UNL     1      49.920  57.201  21.224  1.00  0.00    +0.041 A 
ATOM     11  C   UNL     1      52.028  56.172  20.651  1.00  0.00    +0.048 A 
ATOM     12  C   UNL     1      51.283  57.044  21.451  1.00  0.00    +0.024 A 
ATOM     13  C   UNL     1      49.336  54.856  18.296  1.00  0.00    +0.048 C 
ATOM     14 Cl   UNL     1      49.008  58.279  22.207  1.00  0.00    -0.084 Cl
ENDBRANCH   6   7
ENDBRANCH   5   6
ENDBRANCH   1   5
BRANCH   3  15
ATOM     15  N   UNL     1      49.702  50.917  18.760  1.00  0.00    -0.274 N 
ATOM     16  C   UNL     1      49.599  49.632  19.232  1.00  0.00    +0.191 C 
ATOM     17  S   UNL     1      50.662  48.910  20.307  1.00  0.00    -0.039 S 
ATOM     18  N   UNL     1      48.556  48.878  18.746  1.00  0.00    -0.301 N 
ATOM     19  C   UNL     1      47.555  49.261  17.863  1.00  0.00    +0.231 C 
ATOM     20  O   UNL     1      47.480  50.398  17.402  1.00  0.00    -0.274 OA
ATOM     21  H   UNL     1      48.895  51.323  18.270  1.00  0.00    +0.190 HD
ATOM     22  H   UNL     1      48.542  47.934  19.107  1.00  0.00    +0.172 HD
BRANCH  19  23
ATOM     23  C   UNL     1      46.541  48.153  17.513  1.00  0.00    +0.041 C 
ATOM     24  C   UNL     1      45.789  47.711  18.778  1.00  0.00    +0.021 C 
ATOM     25  C   UNL     1      45.520  48.698  16.499  1.00  0.00    +0.021 C 
ATOM     26  C   UNL     1      47.267  46.954  16.884  1.00  0.00    +0.021 C 
ENDBRANCH  19  23
ENDBRANCH   3  15
TORSDOF 5
ENDMDL
MODEL 4
REMARK VINA RESULT:    -7.765      3.043      7.950
REMARK INTER + INTRA:         -10.763
REMARK INTER:                 -10.466
REMARK INTRA:                  -0.298
REMARK UNBOUND:                -0.728
REMARK SMILES Cc1cc(Cl)ccc1OCC(=O)NNC(=S)NC(=O)C(C)(C)C
REMARK SMILES IDX 11 1 12 2 13 3 10 5 9 6 8 7 2 8 3 9 4 10 7 11 6 12 1 13 5 14
REMARK SMILES IDX 14 15 15 16 16 17 17 18 18 19 19 20 20 23 21 24 22 25 23 26
REMARK H PARENT 13 4 14 21 17 22
ROOT
ATOM      1  C   UNL     1      51.070  52.879  19.350  1.00  0.00    +0.276 C 
ATOM      2  O   UNL     1      50.677  52.519  20.457  1.00  0.00    -0.269 OA
ATOM      3  N   UNL     1      50.413  52.590  18.165  1.00  0.00    -0.265 N 
ATOM      4  H   UNL     1      50.950  52.646  17.299  1.00  0.00    +0.191 HD
ENDROOT
BRANCH   1   5
ATOM      5  C   UNL     1      52.322  53.735  19.159  1.00  0.00    +0.331 C 
BRANCH   5   6
ATOM      6  O   UNL     1      52.330  54.940  19.912  1.00  0.00    -0.483 OA
BRANCH   6   7
ATOM      7  C   UNL     1      51.167  55.661  20.008  1.00  0.00    +0.123 A 
ATOM      8  C   UNL     1      50.813  56.061  21.311  1.00  0.00    -0.007 A 
ATOM      9  C   UNL     1      49.627  56.783  21.516  1.00  0.00    +0.027 A 
ATOM     10  C   UNL     1      48.807  57.106  20.438  1.00  0.00    +0.041 A 
ATOM     11  C   UNL     1      50.337  55.997  18.934  1.00  0.00    +0.048 A 
ATOM     12  C   UNL     1      49.159  56.718  19.150  1.00  0.00    +0.024 A 
ATOM     13  C   UNL     1      51.682  55.712  22.489  1.00  0.00    +0.048 C 
ATOM     14 Cl   UNL     1      47.354  57.989  20.698  1.00  0.00    -0.084 Cl
ENDBRANCH   6   7
ENDBRANCH   5   6
ENDBRANCH   1   5
BRANCH   3  15
ATOM     15  N   UNL     1      49.411  51.605  18.204  1.00  0.00    -0.274 N 
ATOM     16  C   UNL     1      48.306  51.693  17.393  1.00  0.00    +0.191 C 
ATOM     17  S   UNL     1      47.843  53.056  16.537  1.00  0.00    -0.039 S 
ATOM     18  N   UNL     1      47.506  50.576  17.318  1.00  0.00    -0.301 N 
ATOM     19  C   UNL     1      47.691  49.342  17.926  1.00  0.00    +0.231 C 
ATOM     20  O   UNL     1      48.666  49.093  18.633  1.00  0.00    -0.274 OA
ATOM     21  H   UNL     1      49.714  50.674  18.518  1.00  0.00    +0.190 HD
ATOM     22  H   UNL     1      46.695  50.704  16.728  1.00  0.00    +0.172 HD
BRANCH  19  23
ATOM     23  C   UNL     1      46.585  48.306  17.639  1.00  0.00    +0.041 C 
ATOM     24  C   UNL     1      45.969  47.818  18.960  1.00  0.00    +0.021 C 
ATOM     25  C   UNL     1      45.480  48.962  16.793  1.00  0.00    +0.021 C 
ATOM     26  C   UNL     1      47.166  47.119  16.856  1.00  0.00    +0.021 C 
ENDBRANCH  19  23
ENDBRANCH   3  15
TORSDOF 5
ENDMDL
MODEL 5
REMARK VINA RESULT:    -7.724      2.272      2.902
REMARK INTER + INTRA:         -10.710
REMARK INTER:                 -10.121
REMARK INTRA:                  -0.589
REMARK UNBOUND:                -0.728
REMARK SMILES Cc1cc(Cl)ccc1OCC(=O)NNC(=S)NC(=O)C(C)(C)C
REMARK SMILES IDX 11 1 12 2 13 3 10 5 9 6 8 7 2 8 3 9 4 10 7 11 6 12 1 13 5 14
REMARK SMILES IDX 14 15 15 16 16 17 17 18 18 19 19 20 20 23 21 24 22 25 23 26
REMARK H PARENT 13 4 14 21 17 22
ROOT
ATOM      1  C   UNL     1      50.133  49.898  19.416  1.00  0.00    +0.276 C 
ATOM      2  O   UNL     1      50.742  49.818  20.480  1.00  0.00    -0.269 OA
ATOM      3  N   UNL     1      50.108  51.034  18.624  1.00  0.00    -0.265 N 
ATOM      4  H   UNL     1      49.350  51.123  17.945  1.00  0.00    +0.191 HD
ENDROOT
BRANCH   1   5
ATOM      5  C   UNL     1      49.361  48.722  18.819  1.00  0.00    +0.331 C 
BRANCH   5   6
ATOM      6  O   UNL     1      47.966  48.950  18.668  1.00  0.00    -0.483 OA
BRANCH   6   7
ATOM      7  C   UNL     1      47.402  48.774  17.431  1.00  0.00    +0.123 A 
ATOM      8  C   UNL     1      46.108  48.217  17.433  1.00  0.00    -0.007 A 
ATOM      9  C   UNL     1      45.456  47.975  16.214  1.00  0.00    +0.027 A 
ATOM     10  C   UNL     1      46.082  48.288  15.009  1.00  0.00    +0.041 A 
ATOM     11  C   UNL     1      48.016  49.088  16.214  1.00  0.00    +0.048 A 
ATOM     12  C   UNL     1      47.356  48.844  15.006  1.00  0.00    +0.024 A 
ATOM     13  C   UNL     1      45.422  47.865  18.724  1.00  0.00    +0.048 C 
ATOM     14 Cl   UNL     1      45.277  47.986  13.520  1.00  0.00    -0.084 Cl
ENDBRANCH   6   7
ENDBRANCH   5   6
ENDBRANCH   1   5
BRANCH   3  15
ATOM     15  N   UNL     1      50.562  52.234  19.197  1.00  0.00    -0.274 N 
ATOM     16  C   UNL     1      49.894  53.414  18.983  1.00  0.00    +0.191 C 
ATOM     17  S   UNL     1      48.715  53.658  17.818  1.00  0.00    -0.039 S 
ATOM     18  N   UNL     1      50.260  54.482  19.770  1.00  0.00    -0.301 N 
ATOM     19  C   UNL     1      51.196  54.515  20.795  1.00  0.00    +0.231 C 
ATOM     20  O   UNL     1      51.830  53.522  21.143  1.00  0.00    -0.274 OA
ATOM     21  H   UNL     1      51.114  52.135  20.060  1.00  0.00    +0.190 HD
ATOM     22  H   UNL     1      49.754  55.330  19.553  1.00  0.00    +0.172 HD
BRANCH  19  23
ATOM     23  C   UNL     1      51.371  55.892  21.467  1.00  0.00    +0.041 C 
ATOM     24  C   UNL     1      52.476  56.687  20.755  1.00  0.00    +0.021 C 
ATOM     25  C   UNL     1      50.053  56.681  21.364  1.00  0.00    +0.021 C 
ATOM     26  C   UNL     1      51.721  55.712  22.952  1.00  0.00    +0.021 C 
ENDBRANCH  19  23
ENDBRANCH   3  15
TORSDOF 5
ENDMDL
