MODEL 1
REMARK VINA RESULT:    -9.214      0.000      0.000
REMARK INTER + INTRA:         -14.124
REMARK INTER:                 -12.985
REMARK INTRA:                  -1.139
REMARK UNBOUND:                -1.139
REMARK SMILES COc1ccc(/C=C/C(=O)NC(=S)Nc2ccccc2C(=O)NC[C@H]2CCCO2)cc1
REMARK SMILES IDX 9 1 10 2 11 3 12 4 13 5 14 6 8 9 7 10 6 11 3 12 4 13 31 14
REMARK SMILES IDX 5 15 30 16 2 17 1 18 15 19 16 20 20 21 17 22 19 23 18 24
REMARK SMILES IDX 21 25 22 26 23 27 24 29 25 30 26 31 29 32 27 33 28 34
REMARK H PARENT 11 7 14 8 23 28
ROOT
ATOM      1  C   UNL     1      47.889  56.942  16.795  1.00  0.00    +0.250 C 
ATOM      2  O   UNL     1      47.972  56.472  15.669  1.00  0.00    -0.270 OA
ATOM      3  N   UNL     1      48.327  56.380  17.984  1.00  0.00    -0.299 N 
ATOM      4  C   UNL     1      48.652  55.066  18.276  1.00  0.00    +0.177 C 
ATOM      5  S   UNL     1      48.502  53.747  17.265  1.00  0.00    -0.040 S 
ATOM      6  N   UNL     1      49.062  54.837  19.568  1.00  0.00    -0.332 N 
ATOM      7  H   UNL     1      48.110  56.907  18.815  1.00  0.00    +0.172 HD
ATOM      8  H   UNL     1      48.981  53.857  19.861  1.00  0.00    +0.169 HD
ENDROOT
BRANCH   1   9
ATOM      9  C   UNL     1      47.264  58.282  16.963  1.00  0.00    +0.072 C 
ATOM     10  C   UNL     1      47.389  59.017  18.079  1.00  0.00    +0.014 C 
BRANCH  10  11
ATOM     11  C   UNL     1      46.810  60.358  18.256  1.00  0.00    -0.025 A 
ATOM     12  C   UNL     1      45.594  62.890  18.545  1.00  0.00    +0.118 A 
ATOM     13  C   UNL     1      45.383  62.127  17.396  1.00  0.00    +0.047 A 
ATOM     14  C   UNL     1      46.409  62.380  19.556  1.00  0.00    +0.047 A 
ATOM     15  C   UNL     1      45.980  60.871  17.252  1.00  0.00    +0.012 A 
ATOM     16  C   UNL     1      47.006  61.121  19.414  1.00  0.00    +0.012 A 
BRANCH  12  17
ATOM     17  O   UNL     1      44.952  64.096  18.558  1.00  0.00    -0.497 OA
ATOM     18  C   UNL     1      43.541  64.075  18.379  1.00  0.00    +0.278 C 
ENDBRANCH  12  17
ENDBRANCH  10  11
ENDBRANCH   1   9
BRANCH   6  19
ATOM     19  C   UNL     1      49.649  55.694  20.533  1.00  0.00    +0.053 A 
ATOM     20  C   UNL     1      49.051  56.907  20.901  1.00  0.00    +0.027 A 
ATOM     21  C   UNL     1      50.901  55.360  21.094  1.00  0.00    +0.063 A 
ATOM     22  C   UNL     1      49.657  57.750  21.838  1.00  0.00    +0.002 A 
ATOM     23  C   UNL     1      51.510  56.220  22.024  1.00  0.00    +0.016 A 
ATOM     24  C   UNL     1      50.882  57.405  22.403  1.00  0.00    +0.001 A 
BRANCH  21  25
ATOM     25  C   UNL     1      51.585  54.093  20.707  1.00  0.00    +0.253 C 
ATOM     26  O   UNL     1      52.152  54.020  19.622  1.00  0.00    -0.269 OA
ATOM     27  N   UNL     1      51.499  53.053  21.610  1.00  0.00    -0.349 N 
ATOM     28  H   UNL     1      50.876  53.147  22.399  1.00  0.00    +0.163 HD
BRANCH  27  29
ATOM     29  C   UNL     1      51.952  51.711  21.269  1.00  0.00    +0.148 C 
BRANCH  29  30
ATOM     30  C   UNL     1      50.828  50.807  20.747  1.00  0.00    +0.137 C 
ATOM     31  C   UNL     1      50.788  50.643  19.235  1.00  0.00    +0.036 C 
ATOM     32  O   UNL     1      50.930  49.472  21.279  1.00  0.00    -0.376 OA
ATOM     33  C   UNL     1      50.004  49.362  19.096  1.00  0.00    +0.031 C 
ATOM     34  C   UNL     1      50.512  48.545  20.267  1.00  0.00    +0.160 C 
ENDBRANCH  29  30
ENDBRANCH  27  29
ENDBRANCH  21  25
ENDBRANCH   6  19
TORSDOF 7
ENDMDL
MODEL 2
REMARK VINA RESULT:    -8.973      2.911      6.923
REMARK INTER + INTRA:         -13.784
REMARK INTER:                 -12.480
REMARK INTRA:                  -1.303
REMARK UNBOUND:                -1.139
REMARK SMILES COc1ccc(/C=C/C(=O)NC(=S)Nc2ccccc2C(=O)NC[C@H]2CCCO2)cc1
REMARK SMILES IDX 9 1 10 2 11 3 12 4 13 5 14 6 8 9 7 10 6 11 3 12 4 13 31 14
REMARK SMILES IDX 5 15 30 16 2 17 1 18 15 19 16 20 20 21 17 22 19 23 18 24
REMARK SMILES IDX 21 25 22 26 23 27 24 29 25 30 26 31 29 32 27 33 28 34
REMARK H PARENT 11 7 14 8 23 28
ROOT
ATOM      1  C   UNL     1      50.562  52.668  20.245  1.00  0.00    +0.250 C 
ATOM      2  O   UNL     1      51.545  52.664  20.973  1.00  0.00    -0.270 OA
ATOM      3  N   UNL     1      50.089  51.635  19.453  1.00  0.00    -0.299 N 
ATOM      4  C   UNL     1      50.730  50.490  19.013  1.00  0.00    +0.177 C 
ATOM      5  S   UNL     1      52.332  50.085  19.246  1.00  0.00    -0.040 S 
ATOM      6  N   UNL     1      49.967  49.652  18.234  1.00  0.00    -0.332 N 
ATOM      7  H   UNL     1      49.291  51.862  18.880  1.00  0.00    +0.172 HD
ATOM      8  H   UNL     1      50.518  49.006  17.657  1.00  0.00    +0.169 HD
ENDROOT
BRANCH   1   9
ATOM      9  C   UNL     1      49.733  53.902  20.177  1.00  0.00    +0.072 C 
ATOM     10  C   UNL     1      50.157  55.099  20.611  1.00  0.00    +0.014 C 
BRANCH  10  11
ATOM     11  C   UNL     1      49.369  56.338  20.523  1.00  0.00    -0.025 A 
ATOM     12  C   UNL     1      47.765  58.652  20.304  1.00  0.00    +0.118 A 
ATOM     13  C   UNL     1      47.787  57.702  19.282  1.00  0.00    +0.047 A 
ATOM     14  C   UNL     1      48.542  58.438  21.442  1.00  0.00    +0.047 A 
ATOM     15  C   UNL     1      48.577  56.553  19.390  1.00  0.00    +0.012 A 
ATOM     16  C   UNL     1      49.332  57.287  21.553  1.00  0.00    +0.012 A 
BRANCH  12  17
ATOM     17  O   UNL     1      46.952  59.725  20.072  1.00  0.00    -0.497 OA
ATOM     18  C   UNL     1      46.807  60.141  18.720  1.00  0.00    +0.278 C 
ENDBRANCH  12  17
ENDBRANCH  10  11
ENDBRANCH   1   9
BRANCH   6  19
ATOM     19  C   UNL     1      48.564  49.469  18.148  1.00  0.00    +0.053 A 
ATOM     20  C   UNL     1      47.929  48.362  18.727  1.00  0.00    +0.027 A 
ATOM     21  C   UNL     1      47.785  50.383  17.406  1.00  0.00    +0.063 A 
ATOM     22  C   UNL     1      46.546  48.186  18.611  1.00  0.00    +0.002 A 
ATOM     23  C   UNL     1      46.398  50.191  17.282  1.00  0.00    +0.016 A 
ATOM     24  C   UNL     1      45.781  49.101  17.895  1.00  0.00    +0.001 A 
BRANCH  21  25
ATOM     25  C   UNL     1      48.424  51.558  16.749  1.00  0.00    +0.253 C 
ATOM     26  O   UNL     1      49.447  51.400  16.090  1.00  0.00    -0.269 OA
ATOM     27  N   UNL     1      47.821  52.781  16.964  1.00  0.00    -0.349 N 
ATOM     28  H   UNL     1      47.084  52.842  17.651  1.00  0.00    +0.163 HD
BRANCH  27  29
ATOM     29  C   UNL     1      48.454  54.025  16.545  1.00  0.00    +0.148 C 
BRANCH  29  30
ATOM     30  C   UNL     1      47.448  55.137  16.219  1.00  0.00    +0.137 C 
ATOM     31  C   UNL     1      48.070  56.486  15.890  1.00  0.00    +0.036 C 
ATOM     32  O   UNL     1      46.633  54.797  15.082  1.00  0.00    -0.376 OA
ATOM     33  C   UNL     1      46.951  57.149  15.127  1.00  0.00    +0.031 C 
ATOM     34  C   UNL     1      46.372  55.994  14.335  1.00  0.00    +0.160 C 
ENDBRANCH  29  30
ENDBRANCH  27  29
ENDBRANCH  21  25
ENDBRANCH   6  19
TORSDOF 7
ENDMDL
MODEL 3
REMARK VINA RESULT:    -8.679      3.732     10.433
REMARK INTER + INTRA:         -13.370
REMARK INTER:                 -12.943
REMARK INTRA:                  -0.427
REMARK UNBOUND:                -1.139
REMARK SMILES COc1ccc(/C=C/C(=O)NC(=S)Nc2ccccc2C(=O)NC[C@H]2CCCO2)cc1
REMARK SMILES IDX 9 1 10 2 11 3 12 4 13 5 14 6 8 9 7 10 6 11 3 12 4 13 31 14
REMARK SMILES IDX 5 15 30 16 2 17 1 18 15 19 16 20 20 21 17 22 19 23 18 24
REMARK SMILES IDX 21 25 22 26 23 27 24 29 25 30 26 31 29 32 27 33 28 34
REMARK H PARENT 11 7 14 8 23 28
ROOT
ATOM      1  C   UNL     1      49.047  52.878  17.705  1.00  0.00    +0.250 C 
ATOM      2  O   UNL     1      50.133  52.401  18.005  1.00  0.00    -0.270 OA
ATOM      3  N   UNL     1      48.697  54.218  17.645  1.00  0.00    -0.299 N 
ATOM      4  C   UNL     1      49.320  55.323  18.199  1.00  0.00    +0.177 C 
ATOM      5  S   UNL     1      50.650  55.324  19.207  1.00  0.00    -0.040 S 
ATOM      6  N   UNL     1      48.710  56.529  17.945  1.00  0.00    -0.332 N 
ATOM      7  H   UNL     1      47.729  54.401  17.430  1.00  0.00    +0.172 HD
ATOM      8  H   UNL     1      48.968  57.271  18.605  1.00  0.00    +0.169 HD
ENDROOT
BRANCH   1   9
ATOM      9  C   UNL     1      47.940  51.954  17.337  1.00  0.00    +0.072 C 
ATOM     10  C   UNL     1      48.138  50.680  16.967  1.00  0.00    +0.014 C 
BRANCH  10  11
ATOM     11  C   UNL     1      47.059  49.738  16.632  1.00  0.00    -0.025 A 
ATOM     12  C   UNL     1      44.907  48.013  16.029  1.00  0.00    +0.118 A 
ATOM     13  C   UNL     1      44.903  48.773  17.199  1.00  0.00    +0.047 A 
ATOM     14  C   UNL     1      45.987  48.123  15.155  1.00  0.00    +0.047 A 
ATOM     15  C   UNL     1      45.965  49.632  17.498  1.00  0.00    +0.012 A 
ATOM     16  C   UNL     1      47.051  48.984  15.451  1.00  0.00    +0.012 A 
BRANCH  12  17
ATOM     17  O   UNL     1      43.809  47.217  15.859  1.00  0.00    -0.497 OA
ATOM     18  C   UNL     1      43.444  46.903  14.521  1.00  0.00    +0.278 C 
ENDBRANCH  12  17
ENDBRANCH  10  11
ENDBRANCH   1   9
BRANCH   6  19
ATOM     19  C   UNL     1      47.859  56.947  16.891  1.00  0.00    +0.053 A 
ATOM     20  C   UNL     1      47.734  56.208  15.707  1.00  0.00    +0.027 A 
ATOM     21  C   UNL     1      47.165  58.172  16.999  1.00  0.00    +0.063 A 
ATOM     22  C   UNL     1      46.907  56.649  14.670  1.00  0.00    +0.002 A 
ATOM     23  C   UNL     1      46.347  58.615  15.946  1.00  0.00    +0.016 A 
ATOM     24  C   UNL     1      46.210  57.848  14.791  1.00  0.00    +0.001 A 
BRANCH  21  25
ATOM     25  C   UNL     1      47.293  59.003  18.230  1.00  0.00    +0.253 C 
ATOM     26  O   UNL     1      47.474  58.456  19.313  1.00  0.00    -0.269 OA
ATOM     27  N   UNL     1      47.161  60.367  18.062  1.00  0.00    -0.349 N 
ATOM     28  H   UNL     1      46.850  60.716  17.167  1.00  0.00    +0.163 HD
BRANCH  27  29
ATOM     29  C   UNL     1      47.068  61.268  19.203  1.00  0.00    +0.148 C 
BRANCH  29  30
ATOM     30  C   UNL     1      45.624  61.612  19.588  1.00  0.00    +0.137 C 
ATOM     31  C   UNL     1      45.303  63.099  19.609  1.00  0.00    +0.036 C 
ATOM     32  O   UNL     1      44.678  61.024  18.676  1.00  0.00    -0.376 OA
ATOM     33  C   UNL     1      43.801  63.080  19.475  1.00  0.00    +0.031 C 
ATOM     34  C   UNL     1      43.578  61.931  18.512  1.00  0.00    +0.160 C 
ENDBRANCH  29  30
ENDBRANCH  27  29
ENDBRANCH  21  25
ENDBRANCH   6  19
TORSDOF 7
ENDMDL
MODEL 4
REMARK VINA RESULT:    -8.296      4.204      9.733
REMARK INTER + INTRA:         -12.830
REMARK INTER:                 -10.993
REMARK INTRA:                  -1.837
REMARK UNBOUND:                -1.139
REMARK SMILES COc1ccc(/C=C/C(=O)NC(=S)Nc2ccccc2C(=O)NC[C@H]2CCCO2)cc1
REMARK SMILES IDX 9 1 10 2 11 3 12 4 13 5 14 6 8 9 7 10 6 11 3 12 4 13 31 14
REMARK SMILES IDX 5 15 30 16 2 17 1 18 15 19 16 20 20 21 17 22 19 23 18 24
REMARK SMILES IDX 21 25 22 26 23 27 24 29 25 30 26 31 29 32 27 33 28 34
REMARK H PARENT 11 7 14 8 23 28
ROOT
ATOM      1  C   UNL     1      45.998  58.337  15.039  1.00  0.00    +0.250 C 
ATOM      2  O   UNL     1      46.458  58.284  13.907  1.00  0.00    -0.270 OA
ATOM      3  N   UNL     1      44.835  58.966  15.454  1.00  0.00    -0.299 N 
ATOM      4  C   UNL     1      44.081  59.941  14.824  1.00  0.00    +0.177 C 
ATOM      5  S   UNL     1      44.441  60.717  13.391  1.00  0.00    -0.040 S 
ATOM      6  N   UNL     1      42.964  60.354  15.511  1.00  0.00    -0.332 N 
ATOM      7  H   UNL     1      44.662  58.941  16.447  1.00  0.00    +0.172 HD
ATOM      8  H   UNL     1      42.611  61.272  15.215  1.00  0.00    +0.169 HD
ENDROOT
BRANCH   1   9
ATOM      9  C   UNL     1      46.730  57.649  16.137  1.00  0.00    +0.072 C 
ATOM     10  C   UNL     1      47.184  58.285  17.229  1.00  0.00    +0.014 C 
BRANCH  10  11
ATOM     11  C   UNL     1      47.880  57.621  18.342  1.00  0.00    -0.025 A 
ATOM     12  C   UNL     1      49.310  56.330  20.406  1.00  0.00    +0.118 A 
ATOM     13  C   UNL     1      49.367  55.854  19.095  1.00  0.00    +0.047 A 
ATOM     14  C   UNL     1      48.541  57.460  20.682  1.00  0.00    +0.047 A 
ATOM     15  C   UNL     1      48.664  56.494  18.071  1.00  0.00    +0.012 A 
ATOM     16  C   UNL     1      47.838  58.104  19.657  1.00  0.00    +0.012 A 
BRANCH  12  17
ATOM     17  O   UNL     1      50.044  55.613  21.309  1.00  0.00    -0.497 OA
ATOM     18  C   UNL     1      51.013  56.330  22.064  1.00  0.00    +0.278 C 
ENDBRANCH  12  17
ENDBRANCH  10  11
ENDBRANCH   1   9
BRANCH   6  19
ATOM     19  C   UNL     1      42.172  59.707  16.493  1.00  0.00    +0.053 A 
ATOM     20  C   UNL     1      41.582  58.458  16.256  1.00  0.00    +0.027 A 
ATOM     21  C   UNL     1      41.908  60.358  17.717  1.00  0.00    +0.063 A 
ATOM     22  C   UNL     1      40.785  57.846  17.229  1.00  0.00    +0.002 A 
ATOM     23  C   UNL     1      41.094  59.742  18.683  1.00  0.00    +0.016 A 
ATOM     24  C   UNL     1      40.545  58.484  18.442  1.00  0.00    +0.001 A 
BRANCH  21  25
ATOM     25  C   UNL     1      42.492  61.701  17.997  1.00  0.00    +0.253 C 
ATOM     26  O   UNL     1      42.443  62.572  17.135  1.00  0.00    -0.269 OA
ATOM     27  N   UNL     1      43.091  61.861  19.230  1.00  0.00    -0.349 N 
ATOM     28  H   UNL     1      43.231  61.046  19.809  1.00  0.00    +0.163 HD
BRANCH  27  29
ATOM     29  C   UNL     1      43.867  63.053  19.549  1.00  0.00    +0.148 C 
BRANCH  29  30
ATOM     30  C   UNL     1      45.381  62.841  19.425  1.00  0.00    +0.137 C 
ATOM     31  C   UNL     1      45.811  61.395  19.223  1.00  0.00    +0.036 C 
ATOM     32  O   UNL     1      45.929  63.568  18.309  1.00  0.00    -0.376 OA
ATOM     33  C   UNL     1      47.182  61.576  18.619  1.00  0.00    +0.031 C 
ATOM     34  C   UNL     1      46.985  62.788  17.731  1.00  0.00    +0.160 C 
ENDBRANCH  29  30
ENDBRANCH  27  29
ENDBRANCH  21  25
ENDBRANCH   6  19
TORSDOF 7
ENDMDL
MODEL 5
REMARK VINA RESULT:    -8.063      2.651     10.216
REMARK INTER + INTRA:         -12.502
REMARK INTER:                 -11.787
REMARK INTRA:                  -0.715
REMARK UNBOUND:                -1.139
REMARK SMILES COc1ccc(/C=C/C(=O)NC(=S)Nc2ccccc2C(=O)NC[C@H]2CCCO2)cc1
REMARK SMILES IDX 9 1 10 2 11 3 12 4 13 5 14 6 8 9 7 10 6 11 3 12 4 13 31 14
REMARK SMILES IDX 5 15 30 16 2 17 1 18 15 19 16 20 20 21 17 22 19 23 18 24
REMARK SMILES IDX 21 25 22 26 23 27 24 29 25 30 26 31 29 32 27 33 28 34
REMARK H PARENT 11 7 14 8 23 28
ROOT
ATOM      1  C   UNL     1      50.901  54.303  20.151  1.00  0.00    +0.250 C 
ATOM      2  O   UNL     1      51.930  54.381  20.808  1.00  0.00    -0.270 OA
ATOM      3  N   UNL     1      50.015  55.322  19.839  1.00  0.00    -0.299 N 
ATOM      4  C   UNL     1      49.855  56.568  20.420  1.00  0.00    +0.177 C 
ATOM      5  S   UNL     1      50.649  57.156  21.764  1.00  0.00    -0.040 S 
ATOM      6  N   UNL     1      48.875  57.354  19.862  1.00  0.00    -0.332 N 
ATOM      7  H   UNL     1      49.192  55.036  19.331  1.00  0.00    +0.172 HD
ATOM      8  H   UNL     1      48.545  58.105  20.479  1.00  0.00    +0.169 HD
ENDROOT
BRANCH   1   9
ATOM      9  C   UNL     1      50.516  52.982  19.585  1.00  0.00    +0.072 C 
ATOM     10  C   UNL     1      49.734  52.845  18.504  1.00  0.00    +0.014 C 
BRANCH  10  11
ATOM     11  C   UNL     1      49.367  51.551  17.907  1.00  0.00    -0.025 A 
ATOM     12  C   UNL     1      48.718  49.103  16.658  1.00  0.00    +0.118 A 
ATOM     13  C   UNL     1      48.632  50.306  15.954  1.00  0.00    +0.047 A 
ATOM     14  C   UNL     1      49.136  49.126  17.987  1.00  0.00    +0.047 A 
ATOM     15  C   UNL     1      48.958  51.519  16.569  1.00  0.00    +0.012 A 
ATOM     16  C   UNL     1      49.465  50.340  18.604  1.00  0.00    +0.012 A 
BRANCH  12  17
ATOM     17  O   UNL     1      48.372  47.993  15.939  1.00  0.00    -0.497 OA
ATOM     18  C   UNL     1      48.444  46.744  16.614  1.00  0.00    +0.278 C 
ENDBRANCH  12  17
ENDBRANCH  10  11
ENDBRANCH   1   9
BRANCH   6  19
ATOM     19  C   UNL     1      48.301  57.362  18.565  1.00  0.00    +0.053 A 
ATOM     20  C   UNL     1      48.576  56.352  17.633  1.00  0.00    +0.027 A 
ATOM     21  C   UNL     1      47.486  58.444  18.170  1.00  0.00    +0.063 A 
ATOM     22  C   UNL     1      48.019  56.390  16.351  1.00  0.00    +0.002 A 
ATOM     23  C   UNL     1      46.942  58.482  16.874  1.00  0.00    +0.016 A 
ATOM     24  C   UNL     1      47.200  57.450  15.973  1.00  0.00    +0.001 A 
BRANCH  21  25
ATOM     25  C   UNL     1      47.194  59.554  19.121  1.00  0.00    +0.253 C 
ATOM     26  O   UNL     1      46.898  59.292  20.282  1.00  0.00    -0.269 OA
ATOM     27  N   UNL     1      47.247  60.832  18.603  1.00  0.00    -0.349 N 
ATOM     28  H   UNL     1      47.335  60.946  17.604  1.00  0.00    +0.163 HD
BRANCH  27  29
ATOM     29  C   UNL     1      46.792  61.983  19.372  1.00  0.00    +0.148 C 
BRANCH  29  30
ATOM     30  C   UNL     1      45.502  62.608  18.823  1.00  0.00    +0.137 C 
ATOM     31  C   UNL     1      44.547  61.625  18.162  1.00  0.00    +0.036 C 
ATOM     32  O   UNL     1      44.740  63.250  19.863  1.00  0.00    -0.376 OA
ATOM     33  C   UNL     1      43.245  62.384  18.235  1.00  0.00    +0.031 C 
ATOM     34  C   UNL     1      43.345  63.066  19.585  1.00  0.00    +0.160 C 
ENDBRANCH  29  30
ENDBRANCH  27  29
ENDBRANCH  21  25
ENDBRANCH   6  19
TORSDOF 7
ENDMDL
