MODEL 1
REMARK VINA RESULT:    -9.435      0.000      0.000
REMARK INTER + INTRA:         -15.796
REMARK INTER:                 -14.399
REMARK INTRA:                  -1.397
REMARK UNBOUND:                -1.397
REMARK SMILES CS(=O)(=O)NC1(CNC(=O)C[C@@H](NC(=O)c2ccccc2Cl)c2ccccc2)CCCCC1
REMARK SMILES IDX 8 1 9 2 10 3 7 5 6 6 29 7 33 8 30 9 32 10 31 11 5 12 2 14
REMARK SMILES IDX 3 15 4 16 1 17 11 18 12 19 23 20 24 21 28 22 25 23 27 24
REMARK SMILES IDX 26 25 13 26 14 27 15 28 16 30 17 31 21 32 18 33 20 34 19 35
REMARK SMILES IDX 22 36
REMARK H PARENT 8 4 5 13 13 29
ROOT
ATOM      1  N   UNL     1      48.952  52.414  17.903  1.00  0.00    -0.354 N 
ATOM      2  C   UNL     1      48.455  53.673  17.626  1.00  0.00    +0.222 C 
ATOM      3  O   UNL     1      48.256  54.074  16.485  1.00  0.00    -0.275 OA
ATOM      4  H   UNL     1      48.673  52.030  18.807  1.00  0.00    +0.163 HD
ENDROOT
BRANCH   1   5
ATOM      5  C   UNL     1      49.068  51.427  16.845  1.00  0.00    +0.139 C 
BRANCH   5   6
ATOM      6  C   UNL     1      49.226  49.969  17.358  1.00  0.00    +0.050 C 
ATOM      7  C   UNL     1      48.098  49.641  18.374  1.00  0.00    +0.025 C 
ATOM      8  C   UNL     1      49.165  49.012  16.129  1.00  0.00    +0.025 C 
ATOM      9  C   UNL     1      46.888  48.980  17.718  1.00  0.00    +0.002 C 
ATOM     10  C   UNL     1      48.672  47.616  16.499  1.00  0.00    +0.002 C 
ATOM     11  C   UNL     1      47.251  47.648  17.065  1.00  0.00    +0.000 C 
BRANCH   6  12
ATOM     12  N   UNL     1      50.532  49.687  18.031  1.00  0.00    -0.208 NA
ATOM     13  H   UNL     1      51.122  48.986  17.579  1.00  0.00    +0.141 HD
BRANCH  12  14
ATOM     14  S   UNL     1      50.916  49.892  19.635  1.00  0.00    +0.209 S 
ATOM     15  O   UNL     1      50.465  51.230  19.955  1.00  0.00    -0.213 OA
ATOM     16  O   UNL     1      50.424  48.748  20.368  1.00  0.00    -0.213 OA
ATOM     17  C   UNL     1      52.698  49.900  19.670  1.00  0.00    +0.176 C 
ENDBRANCH  12  14
ENDBRANCH   6  12
ENDBRANCH   5   6
ENDBRANCH   1   5
BRANCH   2  18
ATOM     18  C   UNL     1      48.164  54.475  18.877  1.00  0.00    +0.129 C 
BRANCH  18  19
ATOM     19  C   UNL     1      48.989  55.770  18.939  1.00  0.00    +0.122 C 
BRANCH  19  20
ATOM     20  C   UNL     1      49.886  55.875  20.168  1.00  0.00    -0.025 A 
ATOM     21  C   UNL     1      50.735  54.829  20.570  1.00  0.00    +0.006 A 
ATOM     22  C   UNL     1      49.831  57.032  20.962  1.00  0.00    +0.006 A 
ATOM     23  C   UNL     1      51.514  54.946  21.724  1.00  0.00    +0.000 A 
ATOM     24  C   UNL     1      50.605  57.147  22.118  1.00  0.00    +0.000 A 
ATOM     25  C   UNL     1      51.450  56.105  22.497  1.00  0.00    +0.000 A 
ENDBRANCH  19  20
BRANCH  19  26
ATOM     26  N   UNL     1      48.131  56.957  18.911  1.00  0.00    -0.345 N 
ATOM     27  C   UNL     1      47.921  57.666  17.751  1.00  0.00    +0.253 C 
ATOM     28  O   UNL     1      48.261  57.268  16.642  1.00  0.00    -0.269 OA
ATOM     29  H   UNL     1      47.981  57.431  19.793  1.00  0.00    +0.164 HD
BRANCH  27  30
ATOM     30  C   UNL     1      47.211  58.967  17.871  1.00  0.00    +0.058 A 
ATOM     31  C   UNL     1      47.523  59.744  19.000  1.00  0.00    +0.015 A 
ATOM     32  C   UNL     1      46.246  59.433  16.966  1.00  0.00    +0.053 A 
ATOM     33  C   UNL     1      46.900  60.974  19.213  1.00  0.00    +0.001 A 
ATOM     34  C   UNL     1      45.622  60.667  17.188  1.00  0.00    +0.021 A 
ATOM     35  C   UNL     1      45.953  61.438  18.304  1.00  0.00    +0.002 A 
ATOM     36 Cl   UNL     1      45.724  58.535  15.584  1.00  0.00    -0.083 Cl
ENDBRANCH  27  30
ENDBRANCH  19  26
ENDBRANCH  18  19
ENDBRANCH   2  18
TORSDOF 9
ENDMDL
MODEL 2
REMARK VINA RESULT:    -9.155      3.435      8.279
REMARK INTER + INTRA:         -15.369
REMARK INTER:                 -14.723
REMARK INTRA:                  -0.646
REMARK UNBOUND:                -1.397
REMARK SMILES CS(=O)(=O)NC1(CNC(=O)C[C@@H](NC(=O)c2ccccc2Cl)c2ccccc2)CCCCC1
REMARK SMILES IDX 8 1 9 2 10 3 7 5 6 6 29 7 33 8 30 9 32 10 31 11 5 12 2 14
REMARK SMILES IDX 3 15 4 16 1 17 11 18 12 19 23 20 24 21 28 22 25 23 27 24
REMARK SMILES IDX 26 25 13 26 14 27 15 28 16 30 17 31 21 32 18 33 20 34 19 35
REMARK SMILES IDX 22 36
REMARK H PARENT 8 4 5 13 13 29
ROOT
ATOM      1  N   UNL     1      49.850  53.940  19.634  1.00  0.00    -0.354 N 
ATOM      2  C   UNL     1      50.695  53.560  18.610  1.00  0.00    +0.222 C 
ATOM      3  O   UNL     1      51.839  53.986  18.497  1.00  0.00    -0.275 OA
ATOM      4  H   UNL     1      49.145  53.247  19.890  1.00  0.00    +0.163 HD
ENDROOT
BRANCH   1   5
ATOM      5  C   UNL     1      50.360  54.715  20.750  1.00  0.00    +0.139 C 
BRANCH   5   6
ATOM      6  C   UNL     1      50.243  56.251  20.556  1.00  0.00    +0.050 C 
ATOM      7  C   UNL     1      49.284  56.563  19.374  1.00  0.00    +0.025 C 
ATOM      8  C   UNL     1      49.710  56.870  21.884  1.00  0.00    +0.025 C 
ATOM      9  C   UNL     1      47.844  56.795  19.828  1.00  0.00    +0.002 C 
ATOM     10  C   UNL     1      48.963  58.182  21.659  1.00  0.00    +0.002 C 
ATOM     11  C   UNL     1      47.731  57.989  20.774  1.00  0.00    +0.000 C 
BRANCH   6  12
ATOM     12  N   UNL     1      51.540  56.941  20.275  1.00  0.00    -0.208 NA
ATOM     13  H   UNL     1      51.918  56.811  19.335  1.00  0.00    +0.141 HD
BRANCH  12  14
ATOM     14  S   UNL     1      52.710  57.391  21.368  1.00  0.00    +0.209 S 
ATOM     15  O   UNL     1      52.390  58.760  21.710  1.00  0.00    -0.213 OA
ATOM     16  O   UNL     1      52.793  56.370  22.387  1.00  0.00    -0.213 OA
ATOM     17  C   UNL     1      54.220  57.410  20.422  1.00  0.00    +0.176 C 
ENDBRANCH  12  14
ENDBRANCH   6  12
ENDBRANCH   5   6
ENDBRANCH   1   5
BRANCH   2  18
ATOM     18  C   UNL     1      50.062  52.552  17.673  1.00  0.00    +0.129 C 
BRANCH  18  19
ATOM     19  C   UNL     1      49.502  51.335  18.425  1.00  0.00    +0.122 C 
BRANCH  19  20
ATOM     20  C   UNL     1      50.567  50.491  19.118  1.00  0.00    -0.025 A 
ATOM     21  C   UNL     1      51.939  50.651  18.858  1.00  0.00    +0.006 A 
ATOM     22  C   UNL     1      50.169  49.481  20.009  1.00  0.00    +0.006 A 
ATOM     23  C   UNL     1      52.883  49.832  19.483  1.00  0.00    +0.000 A 
ATOM     24  C   UNL     1      51.113  48.659  20.629  1.00  0.00    +0.000 A 
ATOM     25  C   UNL     1      52.470  48.838  20.369  1.00  0.00    +0.000 A 
ENDBRANCH  19  20
BRANCH  19  26
ATOM     26  N   UNL     1      48.744  50.453  17.535  1.00  0.00    -0.345 N 
ATOM     27  C   UNL     1      47.457  50.750  17.151  1.00  0.00    +0.253 C 
ATOM     28  O   UNL     1      46.923  51.836  17.353  1.00  0.00    -0.269 OA
ATOM     29  H   UNL     1      49.044  49.487  17.488  1.00  0.00    +0.164 HD
BRANCH  27  30
ATOM     30  C   UNL     1      46.705  49.694  16.423  1.00  0.00    +0.058 A 
ATOM     31  C   UNL     1      45.611  49.130  17.103  1.00  0.00    +0.015 A 
ATOM     32  C   UNL     1      47.039  49.215  15.148  1.00  0.00    +0.053 A 
ATOM     33  C   UNL     1      44.850  48.120  16.513  1.00  0.00    +0.001 A 
ATOM     34  C   UNL     1      46.273  48.199  14.563  1.00  0.00    +0.021 A 
ATOM     35  C   UNL     1      45.178  47.658  15.241  1.00  0.00    +0.002 A 
ATOM     36 Cl   UNL     1      48.404  49.776  14.248  1.00  0.00    -0.083 Cl
ENDBRANCH  27  30
ENDBRANCH  19  26
ENDBRANCH  18  19
ENDBRANCH   2  18
TORSDOF 9
ENDMDL
MODEL 3
REMARK VINA RESULT:    -8.949      4.376      6.379
REMARK INTER + INTRA:         -15.054
REMARK INTER:                 -14.103
REMARK INTRA:                  -0.951
REMARK UNBOUND:                -1.397
REMARK SMILES CS(=O)(=O)NC1(CNC(=O)C[C@@H](NC(=O)c2ccccc2Cl)c2ccccc2)CCCCC1
REMARK SMILES IDX 8 1 9 2 10 3 7 5 6 6 29 7 33 8 30 9 32 10 31 11 5 12 2 14
REMARK SMILES IDX 3 15 4 16 1 17 11 18 12 19 23 20 24 21 28 22 25 23 27 24
REMARK SMILES IDX 26 25 13 26 14 27 15 28 16 30 17 31 21 32 18 33 20 34 19 35
REMARK SMILES IDX 22 36
REMARK H PARENT 8 4 5 13 13 29
ROOT
ATOM      1  N   UNL     1      47.797  50.249  16.314  1.00  0.00    -0.354 N 
ATOM      2  C   UNL     1      49.062  50.806  16.322  1.00  0.00    +0.222 C 
ATOM      3  O   UNL     1      49.996  50.349  15.674  1.00  0.00    -0.275 OA
ATOM      4  H   UNL     1      47.037  50.904  16.497  1.00  0.00    +0.163 HD
ENDROOT
BRANCH   1   5
ATOM      5  C   UNL     1      47.469  49.202  15.363  1.00  0.00    +0.139 C 
BRANCH   5   6
ATOM      6  C   UNL     1      46.505  48.121  15.925  1.00  0.00    +0.050 C 
ATOM      7  C   UNL     1      47.233  47.272  17.004  1.00  0.00    +0.025 C 
ATOM      8  C   UNL     1      45.263  48.845  16.530  1.00  0.00    +0.025 C 
ATOM      9  C   UNL     1      47.012  47.802  18.419  1.00  0.00    +0.002 C 
ATOM     10  C   UNL     1      44.592  48.030  17.632  1.00  0.00    +0.002 C 
ATOM     11  C   UNL     1      45.535  47.782  18.810  1.00  0.00    +0.000 C 
BRANCH   6  12
ATOM     12  N   UNL     1      45.967  47.177  14.898  1.00  0.00    -0.208 NA
ATOM     13  H   UNL     1      46.526  46.339  14.728  1.00  0.00    +0.141 HD
BRANCH  12  14
ATOM     14  S   UNL     1      44.956  47.526  13.625  1.00  0.00    +0.209 S 
ATOM     15  O   UNL     1      43.666  47.770  14.234  1.00  0.00    -0.213 OA
ATOM     16  O   UNL     1      45.591  48.531  12.805  1.00  0.00    -0.213 OA
ATOM     17  C   UNL     1      44.841  45.999  12.714  1.00  0.00    +0.176 C 
ENDBRANCH  12  14
ENDBRANCH   6  12
ENDBRANCH   5   6
ENDBRANCH   1   5
BRANCH   2  18
ATOM     18  C   UNL     1      49.148  52.044  17.190  1.00  0.00    +0.129 C 
BRANCH  18  19
ATOM     19  C   UNL     1      50.477  52.121  17.958  1.00  0.00    +0.122 C 
BRANCH  19  20
ATOM     20  C   UNL     1      50.787  50.879  18.786  1.00  0.00    -0.025 A 
ATOM     21  C   UNL     1      49.776  50.083  19.353  1.00  0.00    +0.006 A 
ATOM     22  C   UNL     1      52.126  50.540  19.041  1.00  0.00    +0.006 A 
ATOM     23  C   UNL     1      50.099  48.974  20.140  1.00  0.00    +0.000 A 
ATOM     24  C   UNL     1      52.448  49.435  19.832  1.00  0.00    +0.000 A 
ATOM     25  C   UNL     1      51.434  48.650  20.378  1.00  0.00    +0.000 A 
ENDBRANCH  19  20
BRANCH  19  26
ATOM     26  N   UNL     1      50.515  53.277  18.856  1.00  0.00    -0.345 N 
ATOM     27  C   UNL     1      51.671  53.992  19.062  1.00  0.00    +0.253 C 
ATOM     28  O   UNL     1      52.686  53.851  18.387  1.00  0.00    -0.269 OA
ATOM     29  H   UNL     1      49.790  53.328  19.562  1.00  0.00    +0.164 HD
BRANCH  27  30
ATOM     30  C   UNL     1      51.656  55.009  20.147  1.00  0.00    +0.058 A 
ATOM     31  C   UNL     1      51.696  56.354  19.739  1.00  0.00    +0.015 A 
ATOM     32  C   UNL     1      51.642  54.710  21.517  1.00  0.00    +0.053 A 
ATOM     33  C   UNL     1      51.701  57.384  20.680  1.00  0.00    +0.001 A 
ATOM     34  C   UNL     1      51.651  55.750  22.457  1.00  0.00    +0.021 A 
ATOM     35  C   UNL     1      51.674  57.082  22.039  1.00  0.00    +0.002 A 
ATOM     36 Cl   UNL     1      51.668  53.098  22.141  1.00  0.00    -0.083 Cl
ENDBRANCH  27  30
ENDBRANCH  19  26
ENDBRANCH  18  19
ENDBRANCH   2  18
TORSDOF 9
ENDMDL
MODEL 4
REMARK VINA RESULT:    -8.916      3.525      8.897
REMARK INTER + INTRA:         -15.003
REMARK INTER:                 -14.497
REMARK INTRA:                  -0.507
REMARK UNBOUND:                -1.397
REMARK SMILES CS(=O)(=O)NC1(CNC(=O)C[C@@H](NC(=O)c2ccccc2Cl)c2ccccc2)CCCCC1
REMARK SMILES IDX 8 1 9 2 10 3 7 5 6 6 29 7 33 8 30 9 32 10 31 11 5 12 2 14
REMARK SMILES IDX 3 15 4 16 1 17 11 18 12 19 23 20 24 21 28 22 25 23 27 24
REMARK SMILES IDX 26 25 13 26 14 27 15 28 16 30 17 31 21 32 18 33 20 34 19 35
REMARK SMILES IDX 22 36
REMARK H PARENT 8 4 5 13 13 29
ROOT
ATOM      1  N   UNL     1      50.874  54.541  19.482  1.00  0.00    -0.354 N 
ATOM      2  C   UNL     1      50.369  53.255  19.499  1.00  0.00    +0.222 C 
ATOM      3  O   UNL     1      50.254  52.598  20.527  1.00  0.00    -0.275 OA
ATOM      4  H   UNL     1      50.532  55.128  18.721  1.00  0.00    +0.163 HD
ENDROOT
BRANCH   1   5
ATOM      5  C   UNL     1      51.102  55.250  20.728  1.00  0.00    +0.139 C 
BRANCH   5   6
ATOM      6  C   UNL     1      50.680  56.745  20.689  1.00  0.00    +0.050 C 
ATOM      7  C   UNL     1      49.685  56.982  19.520  1.00  0.00    +0.025 C 
ATOM      8  C   UNL     1      50.026  57.102  22.059  1.00  0.00    +0.025 C 
ATOM      9  C   UNL     1      48.225  56.874  19.957  1.00  0.00    +0.002 C 
ATOM     10  C   UNL     1      49.032  58.254  21.949  1.00  0.00    +0.002 C 
ATOM     11  C   UNL     1      47.869  57.915  21.016  1.00  0.00    +0.000 C 
BRANCH   6  12
ATOM     12  N   UNL     1      51.814  57.705  20.515  1.00  0.00    -0.208 NA
ATOM     13  H   UNL     1      52.027  57.971  19.553  1.00  0.00    +0.141 HD
BRANCH  12  14
ATOM     14  S   UNL     1      53.102  57.953  21.537  1.00  0.00    +0.209 S 
ATOM     15  O   UNL     1      52.907  59.287  22.061  1.00  0.00    -0.213 OA
ATOM     16  O   UNL     1      53.203  56.815  22.422  1.00  0.00    -0.213 OA
ATOM     17  C   UNL     1      54.522  57.997  20.462  1.00  0.00    +0.176 C 
ENDBRANCH  12  14
ENDBRANCH   6  12
ENDBRANCH   5   6
ENDBRANCH   1   5
BRANCH   2  18
ATOM     18  C   UNL     1      49.956  52.772  18.124  1.00  0.00    +0.129 C 
BRANCH  18  19
ATOM     19  C   UNL     1      50.046  51.244  17.996  1.00  0.00    +0.122 C 
BRANCH  19  20
ATOM     20  C   UNL     1      50.865  50.769  16.800  1.00  0.00    -0.025 A 
ATOM     21  C   UNL     1      50.266  50.297  15.620  1.00  0.00    +0.006 A 
ATOM     22  C   UNL     1      52.266  50.749  16.892  1.00  0.00    +0.006 A 
ATOM     23  C   UNL     1      51.049  49.833  14.559  1.00  0.00    +0.000 A 
ATOM     24  C   UNL     1      53.048  50.280  15.835  1.00  0.00    +0.000 A 
ATOM     25  C   UNL     1      52.439  49.826  14.666  1.00  0.00    +0.000 A 
ENDBRANCH  19  20
BRANCH  19  26
ATOM     26  N   UNL     1      48.719  50.632  17.899  1.00  0.00    -0.345 N 
ATOM     27  C   UNL     1      48.509  49.312  18.225  1.00  0.00    +0.253 C 
ATOM     28  O   UNL     1      49.342  48.613  18.793  1.00  0.00    -0.269 OA
ATOM     29  H   UNL     1      48.055  51.082  17.281  1.00  0.00    +0.164 HD
BRANCH  27  30
ATOM     30  C   UNL     1      47.180  48.735  17.892  1.00  0.00    +0.058 A 
ATOM     31  C   UNL     1      46.468  48.158  18.959  1.00  0.00    +0.015 A 
ATOM     32  C   UNL     1      46.628  48.701  16.603  1.00  0.00    +0.053 A 
ATOM     33  C   UNL     1      45.218  47.575  18.748  1.00  0.00    +0.001 A 
ATOM     34  C   UNL     1      45.374  48.111  16.398  1.00  0.00    +0.021 A 
ATOM     35  C   UNL     1      44.669  47.556  17.468  1.00  0.00    +0.002 A 
ATOM     36 Cl   UNL     1      47.440  49.308  15.204  1.00  0.00    -0.083 Cl
ENDBRANCH  27  30
ENDBRANCH  19  26
ENDBRANCH  18  19
ENDBRANCH   2  18
TORSDOF 9
ENDMDL
MODEL 5
REMARK VINA RESULT:    -8.328      3.091      8.590
REMARK INTER + INTRA:         -14.107
REMARK INTER:                 -12.304
REMARK INTRA:                  -1.803
REMARK UNBOUND:                -1.397
REMARK SMILES CS(=O)(=O)NC1(CNC(=O)C[C@@H](NC(=O)c2ccccc2Cl)c2ccccc2)CCCCC1
REMARK SMILES IDX 8 1 9 2 10 3 7 5 6 6 29 7 33 8 30 9 32 10 31 11 5 12 2 14
REMARK SMILES IDX 3 15 4 16 1 17 11 18 12 19 23 20 24 21 28 22 25 23 27 24
REMARK SMILES IDX 26 25 13 26 14 27 15 28 16 30 17 31 21 32 18 33 20 34 19 35
REMARK SMILES IDX 22 36
REMARK H PARENT 8 4 5 13 13 29
ROOT
ATOM      1  N   UNL     1      48.335  54.351  17.991  1.00  0.00    -0.354 N 
ATOM      2  C   UNL     1      47.732  53.948  16.815  1.00  0.00    +0.222 C 
ATOM      3  O   UNL     1      47.876  54.544  15.754  1.00  0.00    -0.275 OA
ATOM      4  H   UNL     1      48.518  53.602  18.660  1.00  0.00    +0.163 HD
ENDROOT
BRANCH   1   5
ATOM      5  C   UNL     1      49.342  55.396  17.972  1.00  0.00    +0.139 C 
BRANCH   5   6
ATOM      6  C   UNL     1      49.975  55.686  19.361  1.00  0.00    +0.050 C 
ATOM      7  C   UNL     1      49.440  54.671  20.408  1.00  0.00    +0.025 C 
ATOM      8  C   UNL     1      51.525  55.578  19.220  1.00  0.00    +0.025 C 
ATOM      9  C   UNL     1      50.346  53.451  20.563  1.00  0.00    +0.002 C 
ATOM     10  C   UNL     1      52.205  55.203  20.534  1.00  0.00    +0.002 C 
ATOM     11  C   UNL     1      51.744  53.837  21.044  1.00  0.00    +0.000 C 
BRANCH   6  12
ATOM     12  N   UNL     1      49.708  57.059  19.890  1.00  0.00    -0.208 NA
ATOM     13  H   UNL     1      50.517  57.552  20.274  1.00  0.00    +0.141 HD
BRANCH  12  14
ATOM     14  S   UNL     1      48.271  57.668  20.460  1.00  0.00    +0.209 S 
ATOM     15  O   UNL     1      47.310  56.606  20.251  1.00  0.00    -0.213 OA
ATOM     16  O   UNL     1      48.501  58.212  21.779  1.00  0.00    -0.213 OA
ATOM     17  C   UNL     1      47.867  58.989  19.334  1.00  0.00    +0.176 C 
ENDBRANCH  12  14
ENDBRANCH   6  12
ENDBRANCH   5   6
ENDBRANCH   1   5
BRANCH   2  18
ATOM     18  C   UNL     1      46.908  52.689  16.984  1.00  0.00    +0.129 C 
BRANCH  18  19
ATOM     19  C   UNL     1      47.723  51.419  16.693  1.00  0.00    +0.122 C 
BRANCH  19  20
ATOM     20  C   UNL     1      46.877  50.158  16.550  1.00  0.00    -0.025 A 
ATOM     21  C   UNL     1      45.909  49.792  17.502  1.00  0.00    +0.006 A 
ATOM     22  C   UNL     1      47.102  49.300  15.462  1.00  0.00    +0.006 A 
ATOM     23  C   UNL     1      45.181  48.608  17.358  1.00  0.00    +0.000 A 
ATOM     24  C   UNL     1      46.378  48.115  15.321  1.00  0.00    +0.000 A 
ATOM     25  C   UNL     1      45.414  47.771  16.267  1.00  0.00    +0.000 A 
ENDBRANCH  19  20
BRANCH  19  26
ATOM     26  N   UNL     1      48.723  51.170  17.734  1.00  0.00    -0.345 N 
ATOM     27  C   UNL     1      49.947  50.616  17.439  1.00  0.00    +0.253 C 
ATOM     28  O   UNL     1      50.368  50.470  16.297  1.00  0.00    -0.269 OA
ATOM     29  H   UNL     1      48.380  51.093  18.684  1.00  0.00    +0.164 HD
BRANCH  27  30
ATOM     30  C   UNL     1      50.801  50.211  18.586  1.00  0.00    +0.058 A 
ATOM     31  C   UNL     1      50.287  49.199  19.417  1.00  0.00    +0.015 A 
ATOM     32  C   UNL     1      52.039  50.790  18.900  1.00  0.00    +0.053 A 
ATOM     33  C   UNL     1      51.005  48.758  20.530  1.00  0.00    +0.001 A 
ATOM     34  C   UNL     1      52.753  50.345  20.021  1.00  0.00    +0.021 A 
ATOM     35  C   UNL     1      52.240  49.328  20.828  1.00  0.00    +0.002 A 
ATOM     36 Cl   UNL     1      52.737  52.090  18.000  1.00  0.00    -0.083 Cl
ENDBRANCH  27  30
ENDBRANCH  19  26
ENDBRANCH  18  19
ENDBRANCH   2  18
TORSDOF 9
ENDMDL
