MODEL 1
REMARK VINA RESULT:    -8.401      0.000      0.000
REMARK INTER + INTRA:         -14.439
REMARK INTER:                 -12.821
REMARK INTRA:                  -1.618
REMARK UNBOUND:                -1.618
REMARK SMILES CCOCCOc1ccccc1C(=O)NC(=S)Nc1ccc(NC(=O)c2cccc(C)c2)cc1
REMARK SMILES IDX 7 1 8 2 9 3 10 4 11 5 12 6 6 7 5 8 4 9 3 10 2 11 1 12 13 13
REMARK SMILES IDX 14 14 15 15 16 16 17 17 18 18 19 21 20 22 34 23 21 24 33 25
REMARK SMILES IDX 22 26 23 27 24 28 25 29 26 31 27 32 32 33 28 34 30 35 29 36
REMARK SMILES IDX 31 37
REMARK H PARENT 15 19 18 20 23 30
ROOT
ATOM      1  C   UNL     1      44.930  46.115  13.078  1.00  0.00    +0.132 A 
ATOM      2  C   UNL     1      44.132  45.407  12.168  1.00  0.00    +0.047 A 
ATOM      3  C   UNL     1      44.027  45.824  10.842  1.00  0.00    +0.004 A 
ATOM      4  C   UNL     1      44.702  46.961  10.417  1.00  0.00    +0.001 A 
ATOM      5  C   UNL     1      45.469  47.693  11.323  1.00  0.00    +0.018 A 
ATOM      6  C   UNL     1      45.588  47.287  12.665  1.00  0.00    +0.082 A 
ENDROOT
BRANCH   1   7
ATOM      7  O   UNL     1      45.030  45.719  14.386  1.00  0.00    -0.490 OA
BRANCH   7   8
ATOM      8  C   UNL     1      43.966  46.147  15.259  1.00  0.00    +0.258 C 
BRANCH   8   9
ATOM      9  C   UNL     1      44.485  46.721  16.581  1.00  0.00    +0.201 C 
BRANCH   9  10
ATOM     10  O   UNL     1      44.493  48.147  16.486  1.00  0.00    -0.378 OA
BRANCH  10  11
ATOM     11  C   UNL     1      44.968  48.786  17.668  1.00  0.00    +0.157 C 
ATOM     12  C   UNL     1      45.360  47.757  18.712  1.00  0.00    +0.035 C 
ENDBRANCH  10  11
ENDBRANCH   9  10
ENDBRANCH   8   9
ENDBRANCH   7   8
ENDBRANCH   1   7
BRANCH   6  13
ATOM     13  C   UNL     1      46.404  48.169  13.559  1.00  0.00    +0.261 C 
ATOM     14  O   UNL     1      46.451  49.381  13.342  1.00  0.00    -0.269 OA
ATOM     15  N   UNL     1      47.109  47.574  14.597  1.00  0.00    -0.299 N 
ATOM     16  C   UNL     1      47.825  48.163  15.635  1.00  0.00    +0.177 C 
ATOM     17  S   UNL     1      48.489  47.117  16.754  1.00  0.00    -0.040 S 
ATOM     18  N   UNL     1      47.863  49.537  15.581  1.00  0.00    -0.332 N 
ATOM     19  H   UNL     1      47.081  46.560  14.652  1.00  0.00    +0.172 HD
ATOM     20  H   UNL     1      47.378  49.899  14.758  1.00  0.00    +0.169 HD
BRANCH  18  21
ATOM     21  C   UNL     1      48.400  50.543  16.413  1.00  0.00    +0.040 A 
ATOM     22  C   UNL     1      49.699  50.594  16.909  1.00  0.00    +0.028 A 
ATOM     23  C   UNL     1      47.521  51.575  16.771  1.00  0.00    +0.028 A 
ATOM     24  C   UNL     1      50.112  51.642  17.749  1.00  0.00    +0.028 A 
ATOM     25  C   UNL     1      47.929  52.619  17.609  1.00  0.00    +0.028 A 
ATOM     26  C   UNL     1      49.230  52.659  18.111  1.00  0.00    +0.041 A 
BRANCH  26  27
ATOM     27  N   UNL     1      49.565  53.735  18.958  1.00  0.00    -0.322 N 
ATOM     28  C   UNL     1      50.171  53.670  20.200  1.00  0.00    +0.255 C 
ATOM     29  O   UNL     1      50.499  52.663  20.813  1.00  0.00    -0.269 OA
ATOM     30  H   UNL     1      49.265  54.649  18.643  1.00  0.00    +0.170 HD
BRANCH  28  31
ATOM     31  C   UNL     1      50.399  54.992  20.846  1.00  0.00    +0.040 A 
ATOM     32  C   UNL     1      51.586  55.275  21.533  1.00  0.00    +0.014 A 
ATOM     33  C   UNL     1      49.381  55.953  20.782  1.00  0.00    +0.017 A 
ATOM     34  C   UNL     1      51.758  56.524  22.132  1.00  0.00    +0.001 A 
ATOM     35  C   UNL     1      49.559  57.214  21.365  1.00  0.00    -0.050 A 
ATOM     36  C   UNL     1      50.752  57.488  22.047  1.00  0.00    +0.003 A 
ATOM     37  C   UNL     1      48.463  58.234  21.317  1.00  0.00    +0.044 C 
ENDBRANCH  28  31
ENDBRANCH  26  27
ENDBRANCH  18  21
ENDBRANCH   6  13
TORSDOF 9
ENDMDL
MODEL 2
REMARK VINA RESULT:    -8.306      6.619     11.013
REMARK INTER + INTRA:         -14.294
REMARK INTER:                 -12.973
REMARK INTRA:                  -1.321
REMARK UNBOUND:                -1.618
REMARK SMILES CCOCCOc1ccccc1C(=O)NC(=S)Nc1ccc(NC(=O)c2cccc(C)c2)cc1
REMARK SMILES IDX 7 1 8 2 9 3 10 4 11 5 12 6 6 7 5 8 4 9 3 10 2 11 1 12 13 13
REMARK SMILES IDX 14 14 15 15 16 16 17 17 18 18 19 21 20 22 34 23 21 24 33 25
REMARK SMILES IDX 22 26 23 27 24 28 25 29 26 31 27 32 32 33 28 34 30 35 29 36
REMARK SMILES IDX 31 37
REMARK H PARENT 15 19 18 20 23 30
ROOT
ATOM      1  C   UNL     1      50.052  53.464  18.866  1.00  0.00    +0.132 A 
ATOM      2  C   UNL     1      50.289  52.084  18.793  1.00  0.00    +0.047 A 
ATOM      3  C   UNL     1      49.572  51.287  17.902  1.00  0.00    +0.004 A 
ATOM      4  C   UNL     1      48.600  51.856  17.090  1.00  0.00    +0.001 A 
ATOM      5  C   UNL     1      48.331  53.222  17.182  1.00  0.00    +0.018 A 
ATOM      6  C   UNL     1      49.045  54.043  18.074  1.00  0.00    +0.082 A 
ENDROOT
BRANCH   1   7
ATOM      7  O   UNL     1      50.745  54.253  19.748  1.00  0.00    -0.490 OA
BRANCH   7   8
ATOM      8  C   UNL     1      52.106  54.559  19.389  1.00  0.00    +0.258 C 
BRANCH   8   9
ATOM      9  C   UNL     1      52.445  56.041  19.575  1.00  0.00    +0.201 C 
BRANCH   9  10
ATOM     10  O   UNL     1      51.594  56.579  20.589  1.00  0.00    -0.378 OA
BRANCH  10  11
ATOM     11  C   UNL     1      52.242  56.720  21.850  1.00  0.00    +0.157 C 
ATOM     12  C   UNL     1      51.685  55.724  22.852  1.00  0.00    +0.035 C 
ENDBRANCH  10  11
ENDBRANCH   9  10
ENDBRANCH   8   9
ENDBRANCH   7   8
ENDBRANCH   1   7
BRANCH   6  13
ATOM     13  C   UNL     1      48.647  55.485  18.119  1.00  0.00    +0.261 C 
ATOM     14  O   UNL     1      48.279  56.048  17.087  1.00  0.00    -0.269 OA
ATOM     15  N   UNL     1      48.738  56.151  19.334  1.00  0.00    -0.299 N 
ATOM     16  C   UNL     1      48.315  57.432  19.677  1.00  0.00    +0.177 C 
ATOM     17  S   UNL     1      48.527  57.870  21.275  1.00  0.00    -0.040 S 
ATOM     18  N   UNL     1      47.769  58.142  18.633  1.00  0.00    -0.332 N 
ATOM     19  H   UNL     1      49.131  55.634  20.115  1.00  0.00    +0.172 HD
ATOM     20  H   UNL     1      47.794  57.612  17.760  1.00  0.00    +0.169 HD
BRANCH  18  21
ATOM     21  C   UNL     1      47.172  59.414  18.510  1.00  0.00    +0.040 A 
ATOM     22  C   UNL     1      47.324  60.483  19.388  1.00  0.00    +0.028 A 
ATOM     23  C   UNL     1      46.340  59.595  17.396  1.00  0.00    +0.028 A 
ATOM     24  C   UNL     1      46.658  61.701  19.167  1.00  0.00    +0.028 A 
ATOM     25  C   UNL     1      45.674  60.806  17.174  1.00  0.00    +0.028 A 
ATOM     26  C   UNL     1      45.823  61.871  18.064  1.00  0.00    +0.041 A 
BRANCH  26  27
ATOM     27  N   UNL     1      45.112  63.055  17.783  1.00  0.00    -0.322 N 
ATOM     28  C   UNL     1      44.352  63.808  18.659  1.00  0.00    +0.255 C 
ATOM     29  O   UNL     1      44.124  63.567  19.837  1.00  0.00    -0.269 OA
ATOM     30  H   UNL     1      45.110  63.343  16.812  1.00  0.00    +0.170 HD
BRANCH  28  31
ATOM     31  C   UNL     1      43.727  65.016  18.055  1.00  0.00    +0.040 A 
ATOM     32  C   UNL     1      44.408  65.800  17.117  1.00  0.00    +0.014 A 
ATOM     33  C   UNL     1      42.438  65.381  18.469  1.00  0.00    +0.017 A 
ATOM     34  C   UNL     1      43.790  66.930  16.579  1.00  0.00    +0.001 A 
ATOM     35  C   UNL     1      41.807  66.503  17.916  1.00  0.00    -0.050 A 
ATOM     36  C   UNL     1      42.497  67.278  16.976  1.00  0.00    +0.003 A 
ATOM     37  C   UNL     1      40.439  66.906  18.374  1.00  0.00    +0.044 C 
ENDBRANCH  28  31
ENDBRANCH  26  27
ENDBRANCH  18  21
ENDBRANCH   6  13
TORSDOF 9
ENDMDL
MODEL 3
REMARK VINA RESULT:    -8.290      5.580      9.171
REMARK INTER + INTRA:         -14.269
REMARK INTER:                 -12.983
REMARK INTRA:                  -1.286
REMARK UNBOUND:                -1.618
REMARK SMILES CCOCCOc1ccccc1C(=O)NC(=S)Nc1ccc(NC(=O)c2cccc(C)c2)cc1
REMARK SMILES IDX 7 1 8 2 9 3 10 4 11 5 12 6 6 7 5 8 4 9 3 10 2 11 1 12 13 13
REMARK SMILES IDX 14 14 15 15 16 16 17 17 18 18 19 21 20 22 34 23 21 24 33 25
REMARK SMILES IDX 22 26 23 27 24 28 25 29 26 31 27 32 32 33 28 34 30 35 29 36
REMARK SMILES IDX 31 37
REMARK H PARENT 15 19 18 20 23 30
ROOT
ATOM      1  C   UNL     1      49.892  51.536  17.733  1.00  0.00    +0.132 A 
ATOM      2  C   UNL     1      49.919  50.135  17.679  1.00  0.00    +0.047 A 
ATOM      3  C   UNL     1      48.772  49.416  17.347  1.00  0.00    +0.004 A 
ATOM      4  C   UNL     1      47.585  50.086  17.083  1.00  0.00    +0.001 A 
ATOM      5  C   UNL     1      47.539  51.477  17.170  1.00  0.00    +0.018 A 
ATOM      6  C   UNL     1      48.686  52.221  17.503  1.00  0.00    +0.082 A 
ENDROOT
BRANCH   1   7
ATOM      7  O   UNL     1      51.013  52.250  18.070  1.00  0.00    -0.490 OA
BRANCH   7   8
ATOM      8  C   UNL     1      52.206  51.479  18.308  1.00  0.00    +0.258 C 
BRANCH   8   9
ATOM      9  C   UNL     1      52.648  51.515  19.774  1.00  0.00    +0.201 C 
BRANCH   9  10
ATOM     10  O   UNL     1      52.340  52.803  20.311  1.00  0.00    -0.378 OA
BRANCH  10  11
ATOM     11  C   UNL     1      51.945  52.762  21.680  1.00  0.00    +0.157 C 
ATOM     12  C   UNL     1      50.442  52.588  21.798  1.00  0.00    +0.035 C 
ENDBRANCH  10  11
ENDBRANCH   9  10
ENDBRANCH   8   9
ENDBRANCH   7   8
ENDBRANCH   1   7
BRANCH   6  13
ATOM     13  C   UNL     1      48.514  53.705  17.607  1.00  0.00    +0.261 C 
ATOM     14  O   UNL     1      47.927  54.314  16.711  1.00  0.00    -0.269 OA
ATOM     15  N   UNL     1      49.055  54.350  18.711  1.00  0.00    -0.299 N 
ATOM     16  C   UNL     1      48.928  55.676  19.114  1.00  0.00    +0.177 C 
ATOM     17  S   UNL     1      49.669  56.079  20.554  1.00  0.00    -0.040 S 
ATOM     18  N   UNL     1      48.190  56.456  18.253  1.00  0.00    -0.332 N 
ATOM     19  H   UNL     1      49.595  53.782  19.358  1.00  0.00    +0.172 HD
ATOM     20  H   UNL     1      47.880  55.929  17.435  1.00  0.00    +0.169 HD
BRANCH  18  21
ATOM     21  C   UNL     1      47.756  57.798  18.264  1.00  0.00    +0.040 A 
ATOM     22  C   UNL     1      47.853  58.685  19.332  1.00  0.00    +0.028 A 
ATOM     23  C   UNL     1      47.164  58.260  17.080  1.00  0.00    +0.028 A 
ATOM     24  C   UNL     1      47.364  59.999  19.227  1.00  0.00    +0.028 A 
ATOM     25  C   UNL     1      46.675  59.567  16.973  1.00  0.00    +0.028 A 
ATOM     26  C   UNL     1      46.766  60.449  18.051  1.00  0.00    +0.041 A 
BRANCH  26  27
ATOM     27  N   UNL     1      46.241  61.745  17.874  1.00  0.00    -0.322 N 
ATOM     28  C   UNL     1      46.940  62.903  17.585  1.00  0.00    +0.255 C 
ATOM     29  O   UNL     1      48.152  63.026  17.466  1.00  0.00    -0.269 OA
ATOM     30  H   UNL     1      45.247  61.841  18.042  1.00  0.00    +0.170 HD
BRANCH  28  31
ATOM     31  C   UNL     1      46.093  64.120  17.451  1.00  0.00    +0.040 A 
ATOM     32  C   UNL     1      46.622  65.332  16.991  1.00  0.00    +0.014 A 
ATOM     33  C   UNL     1      44.745  64.042  17.826  1.00  0.00    +0.017 A 
ATOM     34  C   UNL     1      45.796  66.452  16.886  1.00  0.00    +0.001 A 
ATOM     35  C   UNL     1      43.909  65.159  17.703  1.00  0.00    -0.050 A 
ATOM     36  C   UNL     1      44.448  66.366  17.238  1.00  0.00    +0.003 A 
ATOM     37  C   UNL     1      42.473  65.084  18.126  1.00  0.00    +0.044 C 
ENDBRANCH  28  31
ENDBRANCH  26  27
ENDBRANCH  18  21
ENDBRANCH   6  13
TORSDOF 9
ENDMDL
MODEL 4
REMARK VINA RESULT:    -7.877      5.632      9.479
REMARK INTER + INTRA:         -13.639
REMARK INTER:                 -13.309
REMARK INTRA:                  -0.330
REMARK UNBOUND:                -1.618
REMARK SMILES CCOCCOc1ccccc1C(=O)NC(=S)Nc1ccc(NC(=O)c2cccc(C)c2)cc1
REMARK SMILES IDX 7 1 8 2 9 3 10 4 11 5 12 6 6 7 5 8 4 9 3 10 2 11 1 12 13 13
REMARK SMILES IDX 14 14 15 15 16 16 17 17 18 18 19 21 20 22 34 23 21 24 33 25
REMARK SMILES IDX 22 26 23 27 24 28 25 29 26 31 27 32 32 33 28 34 30 35 29 36
REMARK SMILES IDX 31 37
REMARK H PARENT 15 19 18 20 23 30
ROOT
ATOM      1  C   UNL     1      49.950  51.648  18.885  1.00  0.00    +0.132 A 
ATOM      2  C   UNL     1      50.521  50.421  19.249  1.00  0.00    +0.047 A 
ATOM      3  C   UNL     1      51.205  50.288  20.457  1.00  0.00    +0.004 A 
ATOM      4  C   UNL     1      51.340  51.382  21.302  1.00  0.00    +0.001 A 
ATOM      5  C   UNL     1      50.807  52.616  20.931  1.00  0.00    +0.018 A 
ATOM      6  C   UNL     1      50.113  52.770  19.717  1.00  0.00    +0.082 A 
ENDROOT
BRANCH   1   7
ATOM      7  O   UNL     1      49.286  51.791  17.693  1.00  0.00    -0.490 OA
BRANCH   7   8
ATOM      8  C   UNL     1      49.449  50.718  16.747  1.00  0.00    +0.258 C 
BRANCH   8   9
ATOM      9  C   UNL     1      48.116  50.236  16.167  1.00  0.00    +0.201 C 
BRANCH   9  10
ATOM     10  O   UNL     1      47.098  50.420  17.154  1.00  0.00    -0.378 OA
BRANCH  10  11
ATOM     11  C   UNL     1      46.430  49.212  17.505  1.00  0.00    +0.157 C 
ATOM     12  C   UNL     1      47.062  48.591  18.738  1.00  0.00    +0.035 C 
ENDBRANCH  10  11
ENDBRANCH   9  10
ENDBRANCH   8   9
ENDBRANCH   7   8
ENDBRANCH   1   7
BRANCH   6  13
ATOM     13  C   UNL     1      49.618  54.147  19.401  1.00  0.00    +0.261 C 
ATOM     14  O   UNL     1      49.015  54.351  18.346  1.00  0.00    -0.269 OA
ATOM     15  N   UNL     1      49.887  55.163  20.308  1.00  0.00    -0.299 N 
ATOM     16  C   UNL     1      49.437  56.480  20.325  1.00  0.00    +0.177 C 
ATOM     17  S   UNL     1      49.917  57.402  21.632  1.00  0.00    -0.040 S 
ATOM     18  N   UNL     1      48.647  56.817  19.250  1.00  0.00    -0.332 N 
ATOM     19  H   UNL     1      50.463  54.923  21.111  1.00  0.00    +0.172 HD
ATOM     20  H   UNL     1      48.546  56.040  18.595  1.00  0.00    +0.169 HD
BRANCH  18  21
ATOM     21  C   UNL     1      47.938  57.976  18.872  1.00  0.00    +0.040 A 
ATOM     22  C   UNL     1      47.452  58.266  17.601  1.00  0.00    +0.028 A 
ATOM     23  C   UNL     1      47.722  58.920  19.887  1.00  0.00    +0.028 A 
ATOM     24  C   UNL     1      46.774  59.470  17.343  1.00  0.00    +0.028 A 
ATOM     25  C   UNL     1      47.049  60.120  19.632  1.00  0.00    +0.028 A 
ATOM     26  C   UNL     1      46.573  60.409  18.352  1.00  0.00    +0.041 A 
BRANCH  26  27
ATOM     27  N   UNL     1      45.916  61.643  18.169  1.00  0.00    -0.322 N 
ATOM     28  C   UNL     1      46.476  62.843  17.771  1.00  0.00    +0.255 C 
ATOM     29  O   UNL     1      47.656  63.068  17.539  1.00  0.00    -0.269 OA
ATOM     30  H   UNL     1      44.936  61.657  18.421  1.00  0.00    +0.170 HD
BRANCH  28  31
ATOM     31  C   UNL     1      45.511  63.971  17.663  1.00  0.00    +0.040 A 
ATOM     32  C   UNL     1      45.830  65.142  16.966  1.00  0.00    +0.014 A 
ATOM     33  C   UNL     1      44.269  63.853  18.304  1.00  0.00    +0.017 A 
ATOM     34  C   UNL     1      44.899  66.180  16.893  1.00  0.00    +0.001 A 
ATOM     35  C   UNL     1      43.326  64.885  18.216  1.00  0.00    -0.050 A 
ATOM     36  C   UNL     1      43.655  66.051  17.513  1.00  0.00    +0.003 A 
ATOM     37  C   UNL     1      42.008  64.771  18.920  1.00  0.00    +0.044 C 
ENDBRANCH  28  31
ENDBRANCH  26  27
ENDBRANCH  18  21
ENDBRANCH   6  13
TORSDOF 9
ENDMDL
MODEL 5
REMARK VINA RESULT:    -7.823      5.089      9.007
REMARK INTER + INTRA:         -13.557
REMARK INTER:                 -12.969
REMARK INTRA:                  -0.588
REMARK UNBOUND:                -1.618
REMARK SMILES CCOCCOc1ccccc1C(=O)NC(=S)Nc1ccc(NC(=O)c2cccc(C)c2)cc1
REMARK SMILES IDX 7 1 8 2 9 3 10 4 11 5 12 6 6 7 5 8 4 9 3 10 2 11 1 12 13 13
REMARK SMILES IDX 14 14 15 15 16 16 17 17 18 18 19 21 20 22 34 23 21 24 33 25
REMARK SMILES IDX 22 26 23 27 24 28 25 29 26 31 27 32 32 33 28 34 30 35 29 36
REMARK SMILES IDX 31 37
REMARK H PARENT 15 19 18 20 23 30
ROOT
ATOM      1  C   UNL     1      50.468  51.168  19.088  1.00  0.00    +0.132 A 
ATOM      2  C   UNL     1      51.299  50.057  19.289  1.00  0.00    +0.047 A 
ATOM      3  C   UNL     1      52.256  50.062  20.303  1.00  0.00    +0.004 A 
ATOM      4  C   UNL     1      52.405  51.181  21.112  1.00  0.00    +0.001 A 
ATOM      5  C   UNL     1      51.607  52.305  20.895  1.00  0.00    +0.018 A 
ATOM      6  C   UNL     1      50.635  52.319  19.878  1.00  0.00    +0.082 A 
ENDROOT
BRANCH   1   7
ATOM      7  O   UNL     1      49.532  51.176  18.086  1.00  0.00    -0.490 OA
BRANCH   7   8
ATOM      8  C   UNL     1      49.005  49.891  17.703  1.00  0.00    +0.258 C 
BRANCH   8   9
ATOM      9  C   UNL     1      47.485  49.912  17.511  1.00  0.00    +0.201 C 
BRANCH   9  10
ATOM     10  O   UNL     1      46.982  48.590  17.718  1.00  0.00    -0.378 OA
BRANCH  10  11
ATOM     11  C   UNL     1      45.594  48.560  18.036  1.00  0.00    +0.157 C 
ATOM     12  C   UNL     1      45.291  47.427  19.001  1.00  0.00    +0.035 C 
ENDBRANCH  10  11
ENDBRANCH   9  10
ENDBRANCH   8   9
ENDBRANCH   7   8
ENDBRANCH   1   7
BRANCH   6  13
ATOM     13  C   UNL     1      49.864  53.591  19.709  1.00  0.00    +0.261 C 
ATOM     14  O   UNL     1      49.782  54.384  20.648  1.00  0.00    -0.269 OA
ATOM     15  N   UNL     1      49.238  53.818  18.490  1.00  0.00    -0.299 N 
ATOM     16  C   UNL     1      48.581  54.955  18.029  1.00  0.00    +0.177 C 
ATOM     17  S   UNL     1      48.009  54.886  16.462  1.00  0.00    -0.040 S 
ATOM     18  N   UNL     1      48.515  55.977  18.949  1.00  0.00    -0.332 N 
ATOM     19  H   UNL     1      49.287  53.074  17.800  1.00  0.00    +0.172 HD
ATOM     20  H   UNL     1      48.939  55.714  19.840  1.00  0.00    +0.169 HD
BRANCH  18  21
ATOM     21  C   UNL     1      48.015  57.296  18.923  1.00  0.00    +0.040 A 
ATOM     22  C   UNL     1      47.819  58.123  20.025  1.00  0.00    +0.028 A 
ATOM     23  C   UNL     1      47.682  57.800  17.657  1.00  0.00    +0.028 A 
ATOM     24  C   UNL     1      47.294  59.419  19.872  1.00  0.00    +0.028 A 
ATOM     25  C   UNL     1      47.158  59.089  17.503  1.00  0.00    +0.028 A 
ATOM     26  C   UNL     1      46.953  59.909  18.613  1.00  0.00    +0.041 A 
BRANCH  26  27
ATOM     27  N   UNL     1      46.411  61.190  18.381  1.00  0.00    -0.322 N 
ATOM     28  C   UNL     1      45.143  61.637  18.705  1.00  0.00    +0.255 C 
ATOM     29  O   UNL     1      44.240  60.993  19.222  1.00  0.00    -0.269 OA
ATOM     30  H   UNL     1      47.001  61.826  17.860  1.00  0.00    +0.170 HD
BRANCH  28  31
ATOM     31  C   UNL     1      44.872  63.052  18.333  1.00  0.00    +0.040 A 
ATOM     32  C   UNL     1      43.616  63.635  18.536  1.00  0.00    +0.014 A 
ATOM     33  C   UNL     1      45.901  63.797  17.739  1.00  0.00    +0.017 A 
ATOM     34  C   UNL     1      43.400  64.963  18.166  1.00  0.00    +0.001 A 
ATOM     35  C   UNL     1      45.694  65.137  17.385  1.00  0.00    -0.050 A 
ATOM     36  C   UNL     1      44.433  65.710  17.596  1.00  0.00    +0.003 A 
ATOM     37  C   UNL     1      46.785  65.926  16.729  1.00  0.00    +0.044 C 
ENDBRANCH  28  31
ENDBRANCH  26  27
ENDBRANCH  18  21
ENDBRANCH   6  13
TORSDOF 9
ENDMDL
