MODEL 1
REMARK VINA RESULT:    -7.005      0.000      0.000
REMARK INTER + INTRA:         -10.163
REMARK INTER:                  -9.666
REMARK INTRA:                  -0.497
REMARK UNBOUND:                -0.497
REMARK SMILES C#CC(CC)(CC)NC(=O)CSc1nc(C)cc(N)n1
REMARK SMILES IDX 11 1 9 2 8 3 10 4 3 6 2 7 1 8 4 9 5 10 6 11 7 12 12 13 13 14
REMARK SMILES IDX 14 15 20 16 15 17 18 18 17 19 16 20 19 21
REMARK H PARENT 8 5 19 22 19 23
ROOT
ATOM      1  C   UNL     1      52.154  51.210  19.601  1.00  0.00    +0.178 C 
ENDROOT
BRANCH   1   2
ATOM      2  C   UNL     1      51.084  50.228  19.154  1.00  0.00    +0.231 C 
ATOM      3  N   UNL     1      50.151  50.763  18.293  1.00  0.00    -0.339 N 
ATOM      4  O   UNL     1      51.074  49.066  19.549  1.00  0.00    -0.274 OA
ATOM      5  H   UNL     1      50.163  51.774  18.187  1.00  0.00    +0.165 HD
BRANCH   3   6
ATOM      6  C   UNL     1      48.970  50.077  17.749  1.00  0.00    +0.100 C 
ATOM      7  C   UNL     1      48.042  51.181  17.356  1.00  0.00    -0.078 C 
ATOM      8  C   UNL     1      47.307  52.080  17.043  1.00  0.00    +0.006 C 
BRANCH   6   9
ATOM      9  C   UNL     1      48.263  49.219  18.835  1.00  0.00    +0.038 C 
ATOM     10  C   UNL     1      46.928  48.605  18.418  1.00  0.00    +0.007 C 
ENDBRANCH   6   9
BRANCH   6  11
ATOM     11  C   UNL     1      49.310  49.303  16.444  1.00  0.00    +0.038 C 
ATOM     12  C   UNL     1      49.940  50.094  15.307  1.00  0.00    +0.007 C 
ENDBRANCH   6  11
ENDBRANCH   3   6
ENDBRANCH   1   2
BRANCH   1  13
ATOM     13  S   UNL     1      51.995  51.574  21.373  1.00  0.00    -0.076 SA
BRANCH  13  14
ATOM     14  C   UNL     1      51.323  53.211  21.269  1.00  0.00    +0.190 A 
ATOM     15  N   UNL     1      50.255  53.381  20.479  1.00  0.00    -0.228 NA
ATOM     16  N   UNL     1      51.920  54.182  21.983  1.00  0.00    -0.206 NA
ATOM     17  C   UNL     1      49.756  54.628  20.393  1.00  0.00    +0.044 A 
ATOM     18  C   UNL     1      51.371  55.398  21.907  1.00  0.00    +0.128 A 
ATOM     19  C   UNL     1      50.292  55.682  21.101  1.00  0.00    +0.070 A 
ATOM     20  C   UNL     1      48.584  54.840  19.484  1.00  0.00    +0.067 C 
BRANCH  18  21
ATOM     21  N   UNL     1      51.986  56.409  22.644  1.00  0.00    -0.384 N 
ATOM     22  H   UNL     1      52.995  56.308  22.661  1.00  0.00    +0.158 HD
ATOM     23  H   UNL     1      51.707  57.305  22.254  1.00  0.00    +0.158 HD
ENDBRANCH  18  21
ENDBRANCH  13  14
ENDBRANCH   1  13
TORSDOF 7
ENDMDL
MODEL 2
REMARK VINA RESULT:    -6.974      1.484      2.455
REMARK INTER + INTRA:         -10.121
REMARK INTER:                 -10.046
REMARK INTRA:                  -0.075
REMARK UNBOUND:                -0.497
REMARK SMILES C#CC(CC)(CC)NC(=O)CSc1nc(C)cc(N)n1
REMARK SMILES IDX 11 1 9 2 8 3 10 4 3 6 2 7 1 8 4 9 5 10 6 11 7 12 12 13 13 14
REMARK SMILES IDX 14 15 20 16 15 17 18 18 17 19 16 20 19 21
REMARK H PARENT 8 5 19 22 19 23
ROOT
ATOM      1  C   UNL     1      51.695  53.207  18.926  1.00  0.00    +0.178 C 
ENDROOT
BRANCH   1   2
ATOM      2  C   UNL     1      51.094  51.922  18.380  1.00  0.00    +0.231 C 
ATOM      3  N   UNL     1      49.800  52.053  17.928  1.00  0.00    -0.339 N 
ATOM      4  O   UNL     1      51.731  50.873  18.362  1.00  0.00    -0.274 OA
ATOM      5  H   UNL     1      49.325  52.920  18.163  1.00  0.00    +0.165 HD
BRANCH   3   6
ATOM      6  C   UNL     1      48.943  50.975  17.410  1.00  0.00    +0.100 C 
ATOM      7  C   UNL     1      49.664  50.470  16.202  1.00  0.00    -0.078 C 
ATOM      8  C   UNL     1      50.258  50.073  15.234  1.00  0.00    +0.006 C 
BRANCH   6   9
ATOM      9  C   UNL     1      47.562  51.520  16.951  1.00  0.00    +0.038 C 
ATOM     10  C   UNL     1      47.536  52.997  16.562  1.00  0.00    +0.007 C 
ENDBRANCH   6   9
BRANCH   6  11
ATOM     11  C   UNL     1      48.862  49.782  18.404  1.00  0.00    +0.038 C 
ATOM     12  C   UNL     1      47.564  48.989  18.439  1.00  0.00    +0.007 C 
ENDBRANCH   6  11
ENDBRANCH   3   6
ENDBRANCH   1   2
BRANCH   1  13
ATOM     13  S   UNL     1      51.738  53.177  20.741  1.00  0.00    -0.076 SA
BRANCH  13  14
ATOM     14  C   UNL     1      51.313  54.866  21.066  1.00  0.00    +0.190 A 
ATOM     15  N   UNL     1      50.063  55.246  20.771  1.00  0.00    -0.228 NA
ATOM     16  N   UNL     1      52.263  55.665  21.584  1.00  0.00    -0.206 NA
ATOM     17  C   UNL     1      49.749  56.533  21.006  1.00  0.00    +0.044 A 
ATOM     18  C   UNL     1      51.902  56.925  21.845  1.00  0.00    +0.128 A 
ATOM     19  C   UNL     1      50.652  57.421  21.551  1.00  0.00    +0.070 A 
ATOM     20  C   UNL     1      48.365  56.982  20.647  1.00  0.00    +0.067 C 
BRANCH  18  21
ATOM     21  N   UNL     1      52.883  57.758  22.382  1.00  0.00    -0.384 N 
ATOM     22  H   UNL     1      52.557  58.712  22.486  1.00  0.00    +0.158 HD
ATOM     23  H   UNL     1      53.183  57.367  23.271  1.00  0.00    +0.158 HD
ENDBRANCH  18  21
ENDBRANCH  13  14
ENDBRANCH   1  13
TORSDOF 7
ENDMDL
MODEL 3
REMARK VINA RESULT:    -6.965      2.320      3.338
REMARK INTER + INTRA:         -10.108
REMARK INTER:                  -9.937
REMARK INTRA:                  -0.171
REMARK UNBOUND:                -0.497
REMARK SMILES C#CC(CC)(CC)NC(=O)CSc1nc(C)cc(N)n1
REMARK SMILES IDX 11 1 9 2 8 3 10 4 3 6 2 7 1 8 4 9 5 10 6 11 7 12 12 13 13 14
REMARK SMILES IDX 14 15 20 16 15 17 18 18 17 19 16 20 19 21
REMARK H PARENT 8 5 19 22 19 23
ROOT
ATOM      1  C   UNL     1      48.951  54.268  17.901  1.00  0.00    +0.178 C 
ENDROOT
BRANCH   1   2
ATOM      2  C   UNL     1      48.410  53.036  17.192  1.00  0.00    +0.231 C 
ATOM      3  N   UNL     1      48.735  51.846  17.804  1.00  0.00    -0.339 N 
ATOM      4  O   UNL     1      47.748  53.127  16.163  1.00  0.00    -0.274 OA
ATOM      5  H   UNL     1      49.434  51.893  18.541  1.00  0.00    +0.165 HD
BRANCH   3   6
ATOM      6  C   UNL     1      48.409  50.496  17.317  1.00  0.00    +0.100 C 
ATOM      7  C   UNL     1      48.936  49.579  18.373  1.00  0.00    -0.078 C 
ATOM      8  C   UNL     1      49.362  48.854  19.233  1.00  0.00    +0.006 C 
BRANCH   6   9
ATOM      9  C   UNL     1      49.153  50.178  15.990  1.00  0.00    +0.038 C 
ATOM     10  C   UNL     1      48.255  49.881  14.791  1.00  0.00    +0.007 C 
ENDBRANCH   6   9
BRANCH   6  11
ATOM     11  C   UNL     1      46.873  50.265  17.261  1.00  0.00    +0.038 C 
ATOM     12  C   UNL     1      46.345  48.942  17.794  1.00  0.00    +0.007 C 
ENDBRANCH   6  11
ENDBRANCH   3   6
ENDBRANCH   1   2
BRANCH   1  13
ATOM     13  S   UNL     1      50.009  53.793  19.298  1.00  0.00    -0.076 SA
BRANCH  13  14
ATOM     14  C   UNL     1      49.897  55.276  20.260  1.00  0.00    +0.190 A 
ATOM     15  N   UNL     1      48.764  55.984  20.155  1.00  0.00    -0.228 NA
ATOM     16  N   UNL     1      50.947  55.606  21.033  1.00  0.00    -0.206 NA
ATOM     17  C   UNL     1      48.688  57.117  20.877  1.00  0.00    +0.044 A 
ATOM     18  C   UNL     1      50.818  56.714  21.769  1.00  0.00    +0.128 A 
ATOM     19  C   UNL     1      49.708  57.526  21.710  1.00  0.00    +0.070 A 
ATOM     20  C   UNL     1      47.442  57.939  20.741  1.00  0.00    +0.067 C 
BRANCH  18  21
ATOM     21  N   UNL     1      51.903  57.061  22.572  1.00  0.00    -0.384 N 
ATOM     22  H   UNL     1      52.561  56.297  22.674  1.00  0.00    +0.158 HD
ATOM     23  H   UNL     1      52.347  57.884  22.173  1.00  0.00    +0.158 HD
ENDBRANCH  18  21
ENDBRANCH  13  14
ENDBRANCH   1  13
TORSDOF 7
ENDMDL
MODEL 4
REMARK VINA RESULT:    -6.891      1.421      2.323
REMARK INTER + INTRA:         -10.006
REMARK INTER:                  -9.867
REMARK INTRA:                  -0.139
REMARK UNBOUND:                -0.497
REMARK SMILES C#CC(CC)(CC)NC(=O)CSc1nc(C)cc(N)n1
REMARK SMILES IDX 11 1 9 2 8 3 10 4 3 6 2 7 1 8 4 9 5 10 6 11 7 12 12 13 13 14
REMARK SMILES IDX 14 15 20 16 15 17 18 18 17 19 16 20 19 21
REMARK H PARENT 8 5 19 22 19 23
ROOT
ATOM      1  C   UNL     1      52.065  52.936  18.922  1.00  0.00    +0.178 C 
ENDROOT
BRANCH   1   2
ATOM      2  C   UNL     1      51.442  51.763  18.182  1.00  0.00    +0.231 C 
ATOM      3  N   UNL     1      50.164  51.999  17.726  1.00  0.00    -0.339 N 
ATOM      4  O   UNL     1      52.049  50.708  18.026  1.00  0.00    -0.274 OA
ATOM      5  H   UNL     1      49.709  52.838  18.074  1.00  0.00    +0.165 HD
BRANCH   3   6
ATOM      6  C   UNL     1      49.291  51.035  17.038  1.00  0.00    +0.100 C 
ATOM      7  C   UNL     1      49.025  49.975  18.057  1.00  0.00    -0.078 C 
ATOM      8  C   UNL     1      48.818  49.131  18.889  1.00  0.00    +0.006 C 
BRANCH   6   9
ATOM      9  C   UNL     1      50.017  50.373  15.834  1.00  0.00    +0.038 C 
ATOM     10  C   UNL     1      49.114  49.619  14.859  1.00  0.00    +0.007 C 
ENDBRANCH   6   9
BRANCH   6  11
ATOM     11  C   UNL     1      47.913  51.664  16.687  1.00  0.00    +0.038 C 
ATOM     12  C   UNL     1      47.842  53.180  16.582  1.00  0.00    +0.007 C 
ENDBRANCH   6  11
ENDBRANCH   3   6
ENDBRANCH   1   2
BRANCH   1  13
ATOM     13  S   UNL     1      51.700  52.842  20.699  1.00  0.00    -0.076 SA
BRANCH  13  14
ATOM     14  C   UNL     1      51.222  54.525  20.982  1.00  0.00    +0.190 A 
ATOM     15  N   UNL     1      49.994  54.883  20.586  1.00  0.00    -0.228 NA
ATOM     16  N   UNL     1      52.115  55.341  21.572  1.00  0.00    -0.206 NA
ATOM     17  C   UNL     1      49.641  56.166  20.791  1.00  0.00    +0.044 A 
ATOM     18  C   UNL     1      51.712  56.595  21.798  1.00  0.00    +0.128 A 
ATOM     19  C   UNL     1      50.482  57.069  21.403  1.00  0.00    +0.070 A 
ATOM     20  C   UNL     1      48.283  56.590  20.319  1.00  0.00    +0.067 C 
BRANCH  18  21
ATOM     21  N   UNL     1      52.633  57.446  22.409  1.00  0.00    -0.384 N 
ATOM     22  H   UNL     1      52.203  58.305  22.731  1.00  0.00    +0.158 HD
ATOM     23  H   UNL     1      53.076  56.942  23.174  1.00  0.00    +0.158 HD
ENDBRANCH  18  21
ENDBRANCH  13  14
ENDBRANCH   1  13
TORSDOF 7
ENDMDL
MODEL 5
REMARK VINA RESULT:    -6.497      2.394      3.211
REMARK INTER + INTRA:          -9.462
REMARK INTER:                  -9.217
REMARK INTRA:                  -0.245
REMARK UNBOUND:                -0.497
REMARK SMILES C#CC(CC)(CC)NC(=O)CSc1nc(C)cc(N)n1
REMARK SMILES IDX 11 1 9 2 8 3 10 4 3 6 2 7 1 8 4 9 5 10 6 11 7 12 12 13 13 14
REMARK SMILES IDX 14 15 20 16 15 17 18 18 17 19 16 20 19 21
REMARK H PARENT 8 5 19 22 19 23
ROOT
ATOM      1  C   UNL     1      49.337  51.008  16.956  1.00  0.00    +0.178 C 
ENDROOT
BRANCH   1   2
ATOM      2  C   UNL     1      48.295  49.956  17.296  1.00  0.00    +0.231 C 
ATOM      3  N   UNL     1      47.709  49.367  16.197  1.00  0.00    -0.339 N 
ATOM      4  O   UNL     1      48.016  49.680  18.459  1.00  0.00    -0.274 OA
ATOM      5  H   UNL     1      47.891  49.806  15.299  1.00  0.00    +0.165 HD
BRANCH   3   6
ATOM      6  C   UNL     1      46.628  48.369  16.214  1.00  0.00    +0.100 C 
ATOM      7  C   UNL     1      46.243  48.209  14.778  1.00  0.00    -0.078 C 
ATOM      8  C   UNL     1      45.947  48.089  13.619  1.00  0.00    +0.006 C 
BRANCH   6   9
ATOM      9  C   UNL     1      45.386  48.891  16.988  1.00  0.00    +0.038 C 
ATOM     10  C   UNL     1      44.885  47.985  18.111  1.00  0.00    +0.007 C 
ENDBRANCH   6   9
BRANCH   6  11
ATOM     11  C   UNL     1      47.141  46.980  16.689  1.00  0.00    +0.038 C 
ATOM     12  C   UNL     1      48.634  46.710  16.574  1.00  0.00    +0.007 C 
ENDBRANCH   6  11
ENDBRANCH   3   6
ENDBRANCH   1   2
BRANCH   1  13
ATOM     13  S   UNL     1      50.843  50.764  17.941  1.00  0.00    -0.076 SA
BRANCH  13  14
ATOM     14  C   UNL     1      50.599  52.031  19.156  1.00  0.00    +0.190 A 
ATOM     15  N   UNL     1      49.798  53.050  18.819  1.00  0.00    -0.228 NA
ATOM     16  N   UNL     1      51.229  51.899  20.337  1.00  0.00    -0.206 NA
ATOM     17  C   UNL     1      49.626  54.016  19.740  1.00  0.00    +0.044 A 
ATOM     18  C   UNL     1      51.001  52.856  21.242  1.00  0.00    +0.128 A 
ATOM     19  C   UNL     1      50.218  53.958  20.983  1.00  0.00    +0.070 A 
ATOM     20  C   UNL     1      48.762  55.181  19.363  1.00  0.00    +0.067 C 
BRANCH  18  21
ATOM     21  N   UNL     1      51.652  52.725  22.468  1.00  0.00    -0.384 N 
ATOM     22  H   UNL     1      51.024  52.874  23.250  1.00  0.00    +0.158 HD
ATOM     23  H   UNL     1      52.082  51.804  22.505  1.00  0.00    +0.158 HD
ENDBRANCH  18  21
ENDBRANCH  13  14
ENDBRANCH   1  13
TORSDOF 7
ENDMDL
