MODEL 1
REMARK VINA RESULT:    -8.552      0.000      0.000
REMARK INTER + INTRA:         -13.908
REMARK INTER:                 -13.051
REMARK INTRA:                  -0.857
REMARK UNBOUND:                -0.857
REMARK SMILES C[NH+]1CCC[C@H](CNC(=O)c2cc(NCc3ccco3)cc(S(=O)(=O)NC(C)(C)C)c2)C1
REMARK SMILES IDX 22 1 31 2 11 3 12 4 13 5 21 6 23 7 24 8 25 9 26 10 27 12
REMARK SMILES IDX 28 13 29 14 30 15 9 16 10 17 8 18 7 20 6 21 5 22 32 23 4 24
REMARK SMILES IDX 2 25 3 26 1 27 14 29 15 31 16 32 17 33 20 34 18 35 19 36
REMARK H PARENT 26 11 8 19 2 28 14 30
ROOT
ATOM      1  C   UNL     1      49.784  53.747  18.921  1.00  0.00    +0.085 A 
ATOM      2  C   UNL     1      49.646  52.492  18.326  1.00  0.00    +0.035 A 
ATOM      3  C   UNL     1      48.840  52.369  17.194  1.00  0.00    +0.043 A 
ATOM      4  C   UNL     1      48.220  53.507  16.649  1.00  0.00    +0.039 A 
ATOM      5  C   UNL     1      48.392  54.778  17.212  1.00  0.00    +0.037 A 
ATOM      6  C   UNL     1      49.161  54.875  18.378  1.00  0.00    +0.047 A 
ENDROOT
BRANCH   1   7
ATOM      7  S   UNL     1      50.811  53.909  20.357  1.00  0.00    +0.241 S 
ATOM      8  O   UNL     1      52.192  53.971  19.947  1.00  0.00    -0.207 OA
ATOM      9  O   UNL     1      50.339  52.922  21.303  1.00  0.00    -0.207 OA
BRANCH   7  10
ATOM     10  N   UNL     1      50.339  55.393  20.988  1.00  0.00    -0.206 NA
ATOM     11  H   UNL     1      49.389  55.323  21.357  1.00  0.00    +0.141 HD
BRANCH  10  12
ATOM     12  C   UNL     1      51.244  56.319  21.713  1.00  0.00    +0.025 C 
ATOM     13  C   UNL     1      50.378  57.525  22.120  1.00  0.00    +0.028 C 
ATOM     14  C   UNL     1      52.393  56.827  20.841  1.00  0.00    +0.028 C 
ATOM     15  C   UNL     1      51.772  55.645  22.985  1.00  0.00    +0.028 C 
ENDBRANCH  10  12
ENDBRANCH   7  10
ENDBRANCH   1   7
BRANCH   3  16
ATOM     16  C   UNL     1      48.617  51.064  16.516  1.00  0.00    +0.251 C 
ATOM     17  O   UNL     1      48.182  51.025  15.369  1.00  0.00    -0.269 OA
ATOM     18  N   UNL     1      48.873  49.919  17.248  1.00  0.00    -0.352 N 
ATOM     19  H   UNL     1      49.141  49.995  18.222  1.00  0.00    +0.163 HD
BRANCH  18  20
ATOM     20  C   UNL     1      48.698  48.606  16.668  1.00  0.00    +0.125 C 
BRANCH  20  21
ATOM     21  C   UNL     1      47.697  47.720  17.435  1.00  0.00    +0.064 C 
ATOM     22  C   UNL     1      46.697  48.485  18.318  1.00  0.00    +0.017 C 
ATOM     23  C   UNL     1      46.947  46.796  16.465  1.00  0.00    +0.267 C 
ATOM     24  C   UNL     1      45.596  49.179  17.523  1.00  0.00    +0.062 C 
ATOM     25  N   UNL     1      45.894  47.554  15.688  1.00  0.00    -0.337 N 
ATOM     26  C   UNL     1      44.881  48.215  16.593  1.00  0.00    +0.262 C 
ATOM     27  C   UNL     1      45.226  46.685  14.658  1.00  0.00    +0.332 C 
ATOM     28  H   UNL     1      46.353  48.313  15.164  1.00  0.00    +0.347 HD
ENDBRANCH  20  21
ENDBRANCH  18  20
ENDBRANCH   3  16
BRANCH   5  29
ATOM     29  N   UNL     1      47.732  55.916  16.753  1.00  0.00    -0.378 N 
ATOM     30  H   UNL     1      47.410  56.526  17.503  1.00  0.00    +0.161 HD
BRANCH  29  31
ATOM     31  C   UNL     1      48.281  56.683  15.634  1.00  0.00    +0.188 C 
BRANCH  31  32
ATOM     32  C   UNL     1      47.370  56.742  14.454  1.00  0.00    +0.122 A 
ATOM     33  C   UNL     1      46.038  56.429  14.272  1.00  0.00    +0.047 A 
ATOM     34  O   UNL     1      47.910  57.182  13.281  1.00  0.00    -0.467 OA
ATOM     35  C   UNL     1      45.749  56.695  12.912  1.00  0.00    +0.042 A 
ATOM     36  C   UNL     1      46.920  57.149  12.352  1.00  0.00    +0.195 A 
ENDBRANCH  31  32
ENDBRANCH  29  31
ENDBRANCH   5  29
TORSDOF 9
ENDMDL
MODEL 2
REMARK VINA RESULT:    -8.495      1.577      2.224
REMARK INTER + INTRA:         -13.822
REMARK INTER:                 -12.823
REMARK INTRA:                  -0.999
REMARK UNBOUND:                -0.857
REMARK SMILES C[NH+]1CCC[C@H](CNC(=O)c2cc(NCc3ccco3)cc(S(=O)(=O)NC(C)(C)C)c2)C1
REMARK SMILES IDX 22 1 31 2 11 3 12 4 13 5 21 6 23 7 24 8 25 9 26 10 27 12
REMARK SMILES IDX 28 13 29 14 30 15 9 16 10 17 8 18 7 20 6 21 5 22 32 23 4 24
REMARK SMILES IDX 2 25 3 26 1 27 14 29 15 31 16 32 17 33 20 34 18 35 19 36
REMARK H PARENT 26 11 8 19 2 28 14 30
ROOT
ATOM      1  C   UNL     1      49.697  53.805  18.737  1.00  0.00    +0.085 A 
ATOM      2  C   UNL     1      49.574  52.526  18.193  1.00  0.00    +0.035 A 
ATOM      3  C   UNL     1      48.747  52.343  17.084  1.00  0.00    +0.043 A 
ATOM      4  C   UNL     1      48.091  53.447  16.510  1.00  0.00    +0.039 A 
ATOM      5  C   UNL     1      48.248  54.741  17.022  1.00  0.00    +0.037 A 
ATOM      6  C   UNL     1      49.038  54.899  18.166  1.00  0.00    +0.047 A 
ENDROOT
BRANCH   1   7
ATOM      7  S   UNL     1      50.750  54.043  20.144  1.00  0.00    +0.241 S 
ATOM      8  O   UNL     1      52.115  54.172  19.696  1.00  0.00    -0.207 OA
ATOM      9  O   UNL     1      50.355  53.047  21.115  1.00  0.00    -0.207 OA
BRANCH   7  10
ATOM     10  N   UNL     1      50.216  55.509  20.766  1.00  0.00    -0.206 NA
ATOM     11  H   UNL     1      49.254  55.413  21.097  1.00  0.00    +0.141 HD
BRANCH  10  12
ATOM     12  C   UNL     1      51.068  56.451  21.534  1.00  0.00    +0.025 C 
ATOM     13  C   UNL     1      50.123  57.553  22.048  1.00  0.00    +0.028 C 
ATOM     14  C   UNL     1      52.147  57.110  20.672  1.00  0.00    +0.028 C 
ATOM     15  C   UNL     1      51.685  55.735  22.740  1.00  0.00    +0.028 C 
ENDBRANCH  10  12
ENDBRANCH   7  10
ENDBRANCH   1   7
BRANCH   3  16
ATOM     16  C   UNL     1      48.537  51.009  16.461  1.00  0.00    +0.251 C 
ATOM     17  O   UNL     1      48.072  50.918  15.328  1.00  0.00    -0.269 OA
ATOM     18  N   UNL     1      48.841  49.898  17.227  1.00  0.00    -0.352 N 
ATOM     19  H   UNL     1      49.133  50.017  18.190  1.00  0.00    +0.163 HD
BRANCH  18  20
ATOM     20  C   UNL     1      48.682  48.561  16.700  1.00  0.00    +0.125 C 
BRANCH  20  21
ATOM     21  C   UNL     1      47.681  47.699  17.494  1.00  0.00    +0.064 C 
ATOM     22  C   UNL     1      46.662  48.492  18.331  1.00  0.00    +0.017 C 
ATOM     23  C   UNL     1      46.952  46.726  16.557  1.00  0.00    +0.267 C 
ATOM     24  C   UNL     1      45.565  49.139  17.493  1.00  0.00    +0.062 C 
ATOM     25  N   UNL     1      45.901  47.438  15.735  1.00  0.00    -0.337 N 
ATOM     26  C   UNL     1      44.870  48.127  16.598  1.00  0.00    +0.262 C 
ATOM     27  C   UNL     1      45.254  46.518  14.736  1.00  0.00    +0.332 C 
ATOM     28  H   UNL     1      46.359  48.178  15.184  1.00  0.00    +0.347 HD
ENDBRANCH  20  21
ENDBRANCH  18  20
ENDBRANCH   3  16
BRANCH   5  29
ATOM     29  N   UNL     1      47.554  55.847  16.535  1.00  0.00    -0.378 N 
ATOM     30  H   UNL     1      46.597  55.908  16.881  1.00  0.00    +0.161 HD
BRANCH  29  31
ATOM     31  C   UNL     1      48.197  57.161  16.498  1.00  0.00    +0.188 C 
BRANCH  31  32
ATOM     32  C   UNL     1      47.769  58.063  17.606  1.00  0.00    +0.122 A 
ATOM     33  C   UNL     1      47.922  58.013  18.976  1.00  0.00    +0.047 A 
ATOM     34  O   UNL     1      47.070  59.181  17.255  1.00  0.00    -0.467 OA
ATOM     35  C   UNL     1      47.282  59.167  19.491  1.00  0.00    +0.042 A 
ATOM     36  C   UNL     1      46.779  59.844  18.404  1.00  0.00    +0.195 A 
ENDBRANCH  31  32
ENDBRANCH  29  31
ENDBRANCH   5  29
TORSDOF 9
ENDMDL
MODEL 3
REMARK VINA RESULT:    -8.258      4.136      7.199
REMARK INTER + INTRA:         -13.459
REMARK INTER:                 -12.506
REMARK INTRA:                  -0.953
REMARK UNBOUND:                -0.857
REMARK SMILES C[NH+]1CCC[C@H](CNC(=O)c2cc(NCc3ccco3)cc(S(=O)(=O)NC(C)(C)C)c2)C1
REMARK SMILES IDX 22 1 31 2 11 3 12 4 13 5 21 6 23 7 24 8 25 9 26 10 27 12
REMARK SMILES IDX 28 13 29 14 30 15 9 16 10 17 8 18 7 20 6 21 5 22 32 23 4 24
REMARK SMILES IDX 2 25 3 26 1 27 14 29 15 31 16 32 17 33 20 34 18 35 19 36
REMARK H PARENT 26 11 8 19 2 28 14 30
ROOT
ATOM      1  C   UNL     1      48.008  57.224  17.203  1.00  0.00    +0.085 A 
ATOM      2  C   UNL     1      48.673  56.307  18.020  1.00  0.00    +0.035 A 
ATOM      3  C   UNL     1      48.856  56.616  19.367  1.00  0.00    +0.043 A 
ATOM      4  C   UNL     1      48.336  57.814  19.888  1.00  0.00    +0.039 A 
ATOM      5  C   UNL     1      47.626  58.716  19.086  1.00  0.00    +0.037 A 
ATOM      6  C   UNL     1      47.497  58.416  17.725  1.00  0.00    +0.047 A 
ENDROOT
BRANCH   1   7
ATOM      7  S   UNL     1      47.768  56.833  15.490  1.00  0.00    +0.241 S 
ATOM      8  O   UNL     1      47.159  55.530  15.383  1.00  0.00    -0.207 OA
ATOM      9  O   UNL     1      49.013  57.151  14.827  1.00  0.00    -0.207 OA
BRANCH   7  10
ATOM     10  N   UNL     1      46.681  58.011  14.988  1.00  0.00    -0.206 NA
ATOM     11  H   UNL     1      47.131  58.928  15.015  1.00  0.00    +0.141 HD
BRANCH  10  12
ATOM     12  C   UNL     1      45.680  57.819  13.909  1.00  0.00    +0.025 C 
ATOM     13  C   UNL     1      45.208  59.231  13.514  1.00  0.00    +0.028 C 
ATOM     14  C   UNL     1      44.461  57.019  14.370  1.00  0.00    +0.028 C 
ATOM     15  C   UNL     1      46.342  57.166  12.690  1.00  0.00    +0.028 C 
ENDBRANCH  10  12
ENDBRANCH   7  10
ENDBRANCH   1   7
BRANCH   3  16
ATOM     16  C   UNL     1      49.578  55.709  20.299  1.00  0.00    +0.251 C 
ATOM     17  O   UNL     1      50.237  56.167  21.228  1.00  0.00    -0.269 OA
ATOM     18  N   UNL     1      49.510  54.352  20.041  1.00  0.00    -0.352 N 
ATOM     19  H   UNL     1      49.032  54.022  19.210  1.00  0.00    +0.163 HD
BRANCH  18  20
ATOM     20  C   UNL     1      50.168  53.394  20.900  1.00  0.00    +0.125 C 
BRANCH  20  21
ATOM     21  C   UNL     1      51.373  52.696  20.238  1.00  0.00    +0.064 C 
ATOM     22  C   UNL     1      51.967  51.527  21.041  1.00  0.00    +0.017 C 
ATOM     23  C   UNL     1      51.010  52.233  18.820  1.00  0.00    +0.267 C 
ATOM     24  C   UNL     1      51.110  50.266  20.997  1.00  0.00    +0.062 C 
ATOM     25  N   UNL     1      50.135  51.000  18.851  1.00  0.00    -0.337 N 
ATOM     26  C   UNL     1      50.797  49.849  19.571  1.00  0.00    +0.262 C 
ATOM     27  C   UNL     1      49.684  50.600  17.473  1.00  0.00    +0.332 C 
ATOM     28  H   UNL     1      49.278  51.217  19.379  1.00  0.00    +0.347 HD
ENDBRANCH  20  21
ENDBRANCH  18  20
ENDBRANCH   3  16
BRANCH   5  29
ATOM     29  N   UNL     1      47.166  59.950  19.542  1.00  0.00    -0.378 N 
ATOM     30  H   UNL     1      47.670  60.293  20.357  1.00  0.00    +0.161 HD
BRANCH  29  31
ATOM     31  C   UNL     1      46.883  61.026  18.591  1.00  0.00    +0.188 C 
BRANCH  31  32
ATOM     32  C   UNL     1      45.649  61.797  18.918  1.00  0.00    +0.122 A 
ATOM     33  C   UNL     1      45.430  63.083  19.367  1.00  0.00    +0.047 A 
ATOM     34  O   UNL     1      44.459  61.146  18.768  1.00  0.00    -0.467 OA
ATOM     35  C   UNL     1      44.027  63.226  19.498  1.00  0.00    +0.042 A 
ATOM     36  C   UNL     1      43.482  62.021  19.123  1.00  0.00    +0.195 A 
ENDBRANCH  31  32
ENDBRANCH  29  31
ENDBRANCH   5  29
TORSDOF 9
ENDMDL
MODEL 4
REMARK VINA RESULT:    -8.227      3.136      8.231
REMARK INTER + INTRA:         -13.412
REMARK INTER:                 -12.735
REMARK INTRA:                  -0.677
REMARK UNBOUND:                -0.857
REMARK SMILES C[NH+]1CCC[C@H](CNC(=O)c2cc(NCc3ccco3)cc(S(=O)(=O)NC(C)(C)C)c2)C1
REMARK SMILES IDX 22 1 31 2 11 3 12 4 13 5 21 6 23 7 24 8 25 9 26 10 27 12
REMARK SMILES IDX 28 13 29 14 30 15 9 16 10 17 8 18 7 20 6 21 5 22 32 23 4 24
REMARK SMILES IDX 2 25 3 26 1 27 14 29 15 31 16 32 17 33 20 34 18 35 19 36
REMARK H PARENT 26 11 8 19 2 28 14 30
ROOT
ATOM      1  C   UNL     1      49.647  54.670  18.480  1.00  0.00    +0.085 A 
ATOM      2  C   UNL     1      49.184  55.899  18.007  1.00  0.00    +0.035 A 
ATOM      3  C   UNL     1      48.302  55.914  16.926  1.00  0.00    +0.043 A 
ATOM      4  C   UNL     1      47.862  54.702  16.364  1.00  0.00    +0.039 A 
ATOM      5  C   UNL     1      48.285  53.465  16.864  1.00  0.00    +0.037 A 
ATOM      6  C   UNL     1      49.211  53.468  17.913  1.00  0.00    +0.047 A 
ENDROOT
BRANCH   1   7
ATOM      7  S   UNL     1      50.765  54.645  19.856  1.00  0.00    +0.241 S 
ATOM      8  O   UNL     1      51.979  53.970  19.469  1.00  0.00    -0.207 OA
ATOM      9  O   UNL     1      49.987  54.223  20.999  1.00  0.00    -0.207 OA
BRANCH   7  10
ATOM     10  N   UNL     1      51.080  56.276  20.110  1.00  0.00    -0.206 NA
ATOM     11  H   UNL     1      50.616  56.832  19.389  1.00  0.00    +0.141 HD
BRANCH  10  12
ATOM     12  C   UNL     1      51.176  56.910  21.448  1.00  0.00    +0.025 C 
ATOM     13  C   UNL     1      52.190  58.060  21.299  1.00  0.00    +0.028 C 
ATOM     14  C   UNL     1      51.695  55.951  22.521  1.00  0.00    +0.028 C 
ATOM     15  C   UNL     1      49.820  57.503  21.846  1.00  0.00    +0.028 C 
ENDBRANCH  10  12
ENDBRANCH   7  10
ENDBRANCH   1   7
BRANCH   3  16
ATOM     16  C   UNL     1      47.783  57.180  16.342  1.00  0.00    +0.251 C 
ATOM     17  O   UNL     1      47.974  57.443  15.159  1.00  0.00    -0.269 OA
ATOM     18  N   UNL     1      47.131  58.050  17.197  1.00  0.00    -0.352 N 
ATOM     19  H   UNL     1      47.077  57.837  18.186  1.00  0.00    +0.163 HD
BRANCH  18  20
ATOM     20  C   UNL     1      46.581  59.298  16.716  1.00  0.00    +0.125 C 
BRANCH  20  21
ATOM     21  C   UNL     1      45.934  60.154  17.822  1.00  0.00    +0.064 C 
ATOM     22  C   UNL     1      46.925  60.815  18.795  1.00  0.00    +0.017 C 
ATOM     23  C   UNL     1      45.012  61.216  17.205  1.00  0.00    +0.267 C 
ATOM     24  C   UNL     1      47.662  62.005  18.191  1.00  0.00    +0.062 C 
ATOM     25  N   UNL     1      45.808  62.349  16.599  1.00  0.00    -0.337 N 
ATOM     26  C   UNL     1      46.700  63.027  17.612  1.00  0.00    +0.262 C 
ATOM     27  C   UNL     1      44.921  63.342  15.897  1.00  0.00    +0.332 C 
ATOM     28  H   UNL     1      46.431  61.965  15.875  1.00  0.00    +0.347 HD
ENDBRANCH  20  21
ENDBRANCH  18  20
ENDBRANCH   3  16
BRANCH   5  29
ATOM     29  N   UNL     1      47.939  52.245  16.286  1.00  0.00    -0.378 N 
ATOM     30  H   UNL     1      47.885  52.281  15.269  1.00  0.00    +0.161 HD
BRANCH  29  31
ATOM     31  C   UNL     1      48.568  51.007  16.748  1.00  0.00    +0.188 C 
BRANCH  31  32
ATOM     32  C   UNL     1      47.608  50.050  17.369  1.00  0.00    +0.122 A 
ATOM     33  C   UNL     1      47.734  49.091  18.354  1.00  0.00    +0.047 A 
ATOM     34  O   UNL     1      46.324  50.077  16.906  1.00  0.00    -0.467 OA
ATOM     35  C   UNL     1      46.455  48.500  18.499  1.00  0.00    +0.042 A 
ATOM     36  C   UNL     1      45.634  49.133  17.597  1.00  0.00    +0.195 A 
ENDBRANCH  31  32
ENDBRANCH  29  31
ENDBRANCH   5  29
TORSDOF 9
ENDMDL
MODEL 5
REMARK VINA RESULT:    -8.043      2.078      6.310
REMARK INTER + INTRA:         -13.132
REMARK INTER:                 -12.369
REMARK INTRA:                  -0.762
REMARK UNBOUND:                -0.857
REMARK SMILES C[NH+]1CCC[C@H](CNC(=O)c2cc(NCc3ccco3)cc(S(=O)(=O)NC(C)(C)C)c2)C1
REMARK SMILES IDX 22 1 31 2 11 3 12 4 13 5 21 6 23 7 24 8 25 9 26 10 27 12
REMARK SMILES IDX 28 13 29 14 30 15 9 16 10 17 8 18 7 20 6 21 5 22 32 23 4 24
REMARK SMILES IDX 2 25 3 26 1 27 14 29 15 31 16 32 17 33 20 34 18 35 19 36
REMARK H PARENT 26 11 8 19 2 28 14 30
ROOT
ATOM      1  C   UNL     1      48.194  56.108  16.876  1.00  0.00    +0.085 A 
ATOM      2  C   UNL     1      48.246  54.733  16.638  1.00  0.00    +0.035 A 
ATOM      3  C   UNL     1      48.641  53.886  17.673  1.00  0.00    +0.043 A 
ATOM      4  C   UNL     1      48.936  54.418  18.941  1.00  0.00    +0.039 A 
ATOM      5  C   UNL     1      48.840  55.791  19.200  1.00  0.00    +0.037 A 
ATOM      6  C   UNL     1      48.493  56.633  18.138  1.00  0.00    +0.047 A 
ENDROOT
BRANCH   1   7
ATOM      7  S   UNL     1      47.687  57.189  15.565  1.00  0.00    +0.241 S 
ATOM      8  O   UNL     1      48.693  57.184  14.532  1.00  0.00    -0.207 OA
ATOM      9  O   UNL     1      47.249  58.412  16.199  1.00  0.00    -0.207 OA
BRANCH   7  10
ATOM     10  N   UNL     1      46.287  56.455  14.997  1.00  0.00    -0.206 NA
ATOM     11  H   UNL     1      45.901  55.844  15.720  1.00  0.00    +0.141 HD
BRANCH  10  12
ATOM     12  C   UNL     1      45.292  57.119  14.119  1.00  0.00    +0.025 C 
ATOM     13  C   UNL     1      44.826  56.045  13.119  1.00  0.00    +0.028 C 
ATOM     14  C   UNL     1      45.887  58.285  13.327  1.00  0.00    +0.028 C 
ATOM     15  C   UNL     1      44.084  57.573  14.947  1.00  0.00    +0.028 C 
ENDBRANCH  10  12
ENDBRANCH   7  10
ENDBRANCH   1   7
BRANCH   3  16
ATOM     16  C   UNL     1      48.752  52.413  17.495  1.00  0.00    +0.251 C 
ATOM     17  O   UNL     1      49.645  51.784  18.055  1.00  0.00    -0.269 OA
ATOM     18  N   UNL     1      47.844  51.809  16.645  1.00  0.00    -0.352 N 
ATOM     19  H   UNL     1      47.182  52.378  16.130  1.00  0.00    +0.163 HD
BRANCH  18  20
ATOM     20  C   UNL     1      47.865  50.381  16.421  1.00  0.00    +0.125 C 
BRANCH  20  21
ATOM     21  C   UNL     1      47.287  49.564  17.593  1.00  0.00    +0.064 C 
ATOM     22  C   UNL     1      45.782  49.264  17.495  1.00  0.00    +0.017 C 
ATOM     23  C   UNL     1      48.075  48.259  17.776  1.00  0.00    +0.267 C 
ATOM     24  C   UNL     1      45.446  48.185  16.471  1.00  0.00    +0.062 C 
ATOM     25  N   UNL     1      47.717  47.247  16.710  1.00  0.00    -0.337 N 
ATOM     26  C   UNL     1      46.243  46.915  16.710  1.00  0.00    +0.262 C 
ATOM     27  C   UNL     1      48.560  46.005  16.813  1.00  0.00    +0.332 C 
ATOM     28  H   UNL     1      47.922  47.654  15.786  1.00  0.00    +0.347 HD
ENDBRANCH  20  21
ENDBRANCH  18  20
ENDBRANCH   3  16
BRANCH   5  29
ATOM     29  N   UNL     1      49.200  56.369  20.417  1.00  0.00    -0.378 N 
ATOM     30  H   UNL     1      48.403  56.587  21.012  1.00  0.00    +0.161 HD
BRANCH  29  31
ATOM     31  C   UNL     1      50.315  55.819  21.189  1.00  0.00    +0.188 C 
BRANCH  31  32
ATOM     32  C   UNL     1      51.568  56.618  21.071  1.00  0.00    +0.122 A 
ATOM     33  C   UNL     1      52.741  56.436  20.367  1.00  0.00    +0.047 A 
ATOM     34  O   UNL     1      51.631  57.777  21.790  1.00  0.00    -0.467 OA
ATOM     35  C   UNL     1      53.566  57.546  20.673  1.00  0.00    +0.042 A 
ATOM     36  C   UNL     1      52.846  58.331  21.542  1.00  0.00    +0.195 A 
ENDBRANCH  31  32
ENDBRANCH  29  31
ENDBRANCH   5  29
TORSDOF 9
ENDMDL
