MODEL 1
REMARK VINA RESULT:   -10.177      0.000      0.000
REMARK INTER + INTRA:         -16.237
REMARK INTER:                 -15.235
REMARK INTRA:                  -1.003
REMARK UNBOUND:                -1.003
REMARK SMILES CCN(C(=O)CC[C@@H]1Cc2ccccc2NC1=O)c1c(N)n(Cc2ccccc2)c(=O)[nH]c1=O
REMARK SMILES IDX 4 1 5 2 3 3 2 4 1 5 19 6 20 7 33 8 22 9 32 10 34 11 30 12
REMARK SMILES IDX 31 13 21 15 23 18 24 19 25 20 29 21 26 22 28 23 27 24 6 25
REMARK SMILES IDX 7 26 8 27 9 28 17 29 10 30 16 31 18 32 11 33 15 34 12 35
REMARK SMILES IDX 14 36 13 37
REMARK H PARENT 32 14 21 16 21 17 16 38
ROOT
ATOM      1  C   UNL     1      49.854  50.576  18.516  1.00  0.00    +0.227 C 
ATOM      2  O   UNL     1      49.090  51.485  18.179  1.00  0.00    -0.275 OA
ENDROOT
BRANCH   1   3
ATOM      3  N   UNL     1      51.161  50.831  18.961  1.00  0.00    -0.305 N 
BRANCH   3   4
ATOM      4  C   UNL     1      52.359  50.474  18.178  1.00  0.00    +0.122 C 
ATOM      5  C   UNL     1      52.182  50.688  16.680  1.00  0.00    +0.028 C 
ENDBRANCH   3   4
BRANCH   3   6
ATOM      6  C   UNL     1      51.315  51.814  19.951  1.00  0.00    +0.151 C 
ATOM      7  C   UNL     1      51.391  53.141  19.680  1.00  0.00    +0.137 C 
ATOM      8  C   UNL     1      51.328  51.367  21.378  1.00  0.00    +0.279 C 
ATOM      9  N   UNL     1      51.490  54.052  20.733  1.00  0.00    -0.274 N 
ATOM     10  N   UNL     1      51.656  52.316  22.292  1.00  0.00    -0.272 N 
ATOM     11  O   UNL     1      50.977  50.241  21.723  1.00  0.00    -0.267 OA
ATOM     12  C   UNL     1      51.575  53.655  22.064  1.00  0.00    +0.330 C 
ATOM     13  O   UNL     1      51.555  54.426  23.023  1.00  0.00    -0.248 OA
ATOM     14  H   UNL     1      51.620  52.033  23.258  1.00  0.00    +0.175 HD
BRANCH   7  15
ATOM     15  N   UNL     1      51.390  53.589  18.359  1.00  0.00    -0.383 N 
ATOM     16  H   UNL     1      50.445  53.669  17.992  1.00  0.00    +0.158 HD
ATOM     17  H   UNL     1      51.892  54.466  18.261  1.00  0.00    +0.158 HD
ENDBRANCH   7  15
BRANCH   9  18
ATOM     18  C   UNL     1      51.624  55.490  20.485  1.00  0.00    +0.164 C 
BRANCH  18  19
ATOM     19  C   UNL     1      50.324  56.248  20.657  1.00  0.00    -0.028 A 
ATOM     20  C   UNL     1      50.237  57.313  21.566  1.00  0.00    +0.005 A 
ATOM     21  C   UNL     1      49.191  55.917  19.900  1.00  0.00    +0.005 A 
ATOM     22  C   UNL     1      49.044  58.022  21.723  1.00  0.00    +0.000 A 
ATOM     23  C   UNL     1      47.998  56.626  20.056  1.00  0.00    +0.000 A 
ATOM     24  C   UNL     1      47.924  57.676  20.969  1.00  0.00    +0.000 A 
ENDBRANCH  18  19
ENDBRANCH   9  18
ENDBRANCH   3   6
ENDBRANCH   1   3
BRANCH   1  25
ATOM     25  C   UNL     1      49.362  49.135  18.595  1.00  0.00    +0.101 C 
BRANCH  25  26
ATOM     26  C   UNL     1      47.839  49.055  18.760  1.00  0.00    +0.024 C 
BRANCH  26  27
ATOM     27  C   UNL     1      47.113  48.155  17.746  1.00  0.00    +0.084 C 
ATOM     28  C   UNL     1      46.794  48.871  16.433  1.00  0.00    +0.051 C 
ATOM     29  C   UNL     1      45.865  47.487  18.315  1.00  0.00    +0.227 C 
ATOM     30  C   UNL     1      46.053  47.960  15.493  1.00  0.00    -0.024 A 
ATOM     31  N   UNL     1      45.044  46.875  17.404  1.00  0.00    -0.326 N 
ATOM     32  O   UNL     1      45.623  47.408  19.517  1.00  0.00    -0.274 OA
ATOM     33  C   UNL     1      46.155  48.109  14.106  1.00  0.00    +0.006 A 
ATOM     34  C   UNL     1      45.168  47.012  16.018  1.00  0.00    +0.044 A 
ATOM     35  C   UNL     1      45.387  47.308  13.258  1.00  0.00    +0.000 A 
ATOM     36  C   UNL     1      44.386  46.225  15.174  1.00  0.00    +0.026 A 
ATOM     37  C   UNL     1      44.503  46.370  13.791  1.00  0.00    +0.002 A 
ATOM     38  H   UNL     1      44.300  46.310  17.792  1.00  0.00    +0.169 HD
ENDBRANCH  26  27
ENDBRANCH  25  26
ENDBRANCH   1  25
TORSDOF 9
ENDMDL
MODEL 2
REMARK VINA RESULT:    -9.373      2.181      3.085
REMARK INTER + INTRA:         -15.032
REMARK INTER:                 -13.697
REMARK INTRA:                  -1.335
REMARK UNBOUND:                -1.003
REMARK SMILES CCN(C(=O)CC[C@@H]1Cc2ccccc2NC1=O)c1c(N)n(Cc2ccccc2)c(=O)[nH]c1=O
REMARK SMILES IDX 4 1 5 2 3 3 2 4 1 5 19 6 20 7 33 8 22 9 32 10 34 11 30 12
REMARK SMILES IDX 31 13 21 15 23 18 24 19 25 20 29 21 26 22 28 23 27 24 6 25
REMARK SMILES IDX 7 26 8 27 9 28 17 29 10 30 16 31 18 32 11 33 15 34 12 35
REMARK SMILES IDX 14 36 13 37
REMARK H PARENT 32 14 21 16 21 17 16 38
ROOT
ATOM      1  C   UNL     1      49.013  49.822  18.083  1.00  0.00    +0.227 C 
ATOM      2  O   UNL     1      49.847  49.322  18.843  1.00  0.00    -0.275 OA
ENDROOT
BRANCH   1   3
ATOM      3  N   UNL     1      49.355  50.818  17.155  1.00  0.00    -0.305 N 
BRANCH   3   4
ATOM      4  C   UNL     1      49.189  50.651  15.700  1.00  0.00    +0.122 C 
ATOM      5  C   UNL     1      50.041  49.526  15.125  1.00  0.00    +0.028 C 
ENDBRANCH   3   4
BRANCH   3   6
ATOM      6  C   UNL     1      49.449  52.133  17.640  1.00  0.00    +0.151 C 
ATOM      7  C   UNL     1      50.608  52.686  18.077  1.00  0.00    +0.137 C 
ATOM      8  C   UNL     1      48.215  52.977  17.604  1.00  0.00    +0.279 C 
ATOM      9  N   UNL     1      50.619  54.018  18.491  1.00  0.00    -0.274 N 
ATOM     10  N   UNL     1      48.299  54.173  18.240  1.00  0.00    -0.272 N 
ATOM     11  O   UNL     1      47.215  52.660  16.964  1.00  0.00    -0.267 OA
ATOM     12  C   UNL     1      49.470  54.801  18.534  1.00  0.00    +0.330 C 
ATOM     13  O   UNL     1      49.456  56.005  18.790  1.00  0.00    -0.248 OA
ATOM     14  H   UNL     1      47.487  54.766  18.179  1.00  0.00    +0.175 HD
BRANCH   7  15
ATOM     15  N   UNL     1      51.774  51.921  18.130  1.00  0.00    -0.383 N 
ATOM     16  H   UNL     1      52.481  52.273  17.489  1.00  0.00    +0.158 HD
ATOM     17  H   UNL     1      52.140  51.864  19.076  1.00  0.00    +0.158 HD
ENDBRANCH   7  15
BRANCH   9  18
ATOM     18  C   UNL     1      51.837  54.641  19.018  1.00  0.00    +0.164 C 
BRANCH  18  19
ATOM     19  C   UNL     1      51.800  54.844  20.519  1.00  0.00    -0.028 A 
ATOM     20  C   UNL     1      51.862  56.136  21.064  1.00  0.00    +0.005 A 
ATOM     21  C   UNL     1      51.682  53.753  21.391  1.00  0.00    +0.005 A 
ATOM     22  C   UNL     1      51.819  56.329  22.447  1.00  0.00    +0.000 A 
ATOM     23  C   UNL     1      51.639  53.946  22.774  1.00  0.00    +0.000 A 
ATOM     24  C   UNL     1      51.710  55.234  23.301  1.00  0.00    +0.000 A 
ENDBRANCH  18  19
ENDBRANCH   9  18
ENDBRANCH   3   6
ENDBRANCH   1   3
BRANCH   1  25
ATOM     25  C   UNL     1      47.589  49.278  18.025  1.00  0.00    +0.101 C 
BRANCH  25  26
ATOM     26  C   UNL     1      47.556  47.795  17.637  1.00  0.00    +0.024 C 
BRANCH  26  27
ATOM     27  C   UNL     1      46.502  47.414  16.582  1.00  0.00    +0.084 C 
ATOM     28  C   UNL     1      46.493  48.358  15.380  1.00  0.00    +0.051 C 
ATOM     29  C   UNL     1      45.098  47.259  17.160  1.00  0.00    +0.227 C 
ATOM     30  C   UNL     1      45.422  47.965  14.399  1.00  0.00    -0.024 A 
ATOM     31  N   UNL     1      44.082  47.164  16.245  1.00  0.00    -0.326 N 
ATOM     32  O   UNL     1      44.865  47.135  18.360  1.00  0.00    -0.274 OA
ATOM     33  C   UNL     1      45.555  48.233  13.033  1.00  0.00    +0.006 A 
ATOM     34  C   UNL     1      44.229  47.411  14.877  1.00  0.00    +0.044 A 
ATOM     35  C   UNL     1      44.508  47.937  12.157  1.00  0.00    +0.000 A 
ATOM     36  C   UNL     1      43.175  47.134  14.008  1.00  0.00    +0.026 A 
ATOM     37  C   UNL     1      43.320  47.392  12.644  1.00  0.00    +0.002 A 
ATOM     38  H   UNL     1      43.175  46.915  16.619  1.00  0.00    +0.169 HD
ENDBRANCH  26  27
ENDBRANCH  25  26
ENDBRANCH   1  25
TORSDOF 9
ENDMDL
MODEL 3
REMARK VINA RESULT:    -9.316      2.534      4.503
REMARK INTER + INTRA:         -14.948
REMARK INTER:                 -14.113
REMARK INTRA:                  -0.836
REMARK UNBOUND:                -1.003
REMARK SMILES CCN(C(=O)CC[C@@H]1Cc2ccccc2NC1=O)c1c(N)n(Cc2ccccc2)c(=O)[nH]c1=O
REMARK SMILES IDX 4 1 5 2 3 3 2 4 1 5 19 6 20 7 33 8 22 9 32 10 34 11 30 12
REMARK SMILES IDX 31 13 21 15 23 18 24 19 25 20 29 21 26 22 28 23 27 24 6 25
REMARK SMILES IDX 7 26 8 27 9 28 17 29 10 30 16 31 18 32 11 33 15 34 12 35
REMARK SMILES IDX 14 36 13 37
REMARK H PARENT 32 14 21 16 21 17 16 38
ROOT
ATOM      1  C   UNL     1      51.404  53.374  21.312  1.00  0.00    +0.227 C 
ATOM      2  O   UNL     1      52.043  53.217  22.356  1.00  0.00    -0.275 OA
ENDROOT
BRANCH   1   3
ATOM      3  N   UNL     1      51.540  54.527  20.523  1.00  0.00    -0.305 N 
BRANCH   3   4
ATOM      4  C   UNL     1      51.971  54.490  19.114  1.00  0.00    +0.122 C 
ATOM      5  C   UNL     1      53.129  53.532  18.866  1.00  0.00    +0.028 C 
ENDBRANCH   3   4
BRANCH   3   6
ATOM      6  C   UNL     1      50.848  55.673  20.949  1.00  0.00    +0.151 C 
ATOM      7  C   UNL     1      49.545  55.910  20.656  1.00  0.00    +0.137 C 
ATOM      8  C   UNL     1      51.578  56.640  21.825  1.00  0.00    +0.279 C 
ATOM      9  N   UNL     1      48.923  57.050  21.167  1.00  0.00    -0.274 N 
ATOM     10  N   UNL     1      50.942  57.814  22.069  1.00  0.00    -0.272 N 
ATOM     11  O   UNL     1      52.644  56.365  22.372  1.00  0.00    -0.267 OA
ATOM     12  C   UNL     1      49.601  57.999  21.925  1.00  0.00    +0.330 C 
ATOM     13  O   UNL     1      49.066  58.958  22.481  1.00  0.00    -0.248 OA
ATOM     14  H   UNL     1      51.407  58.449  22.697  1.00  0.00    +0.175 HD
BRANCH   7  15
ATOM     15  N   UNL     1      48.839  55.031  19.834  1.00  0.00    -0.383 N 
ATOM     16  H   UNL     1      48.770  55.383  18.882  1.00  0.00    +0.158 HD
ATOM     17  H   UNL     1      49.245  54.100  19.847  1.00  0.00    +0.158 HD
ENDBRANCH   7  15
BRANCH   9  18
ATOM     18  C   UNL     1      47.532  57.372  20.835  1.00  0.00    +0.164 C 
BRANCH  18  19
ATOM     19  C   UNL     1      47.405  58.332  19.671  1.00  0.00    -0.028 A 
ATOM     20  C   UNL     1      47.588  57.883  18.354  1.00  0.00    +0.005 A 
ATOM     21  C   UNL     1      47.081  59.680  19.881  1.00  0.00    +0.005 A 
ATOM     22  C   UNL     1      47.463  58.762  17.276  1.00  0.00    +0.000 A 
ATOM     23  C   UNL     1      46.956  60.559  18.803  1.00  0.00    +0.000 A 
ATOM     24  C   UNL     1      47.149  60.100  17.501  1.00  0.00    +0.000 A 
ENDBRANCH  18  19
ENDBRANCH   9  18
ENDBRANCH   3   6
ENDBRANCH   1   3
BRANCH   1  25
ATOM     25  C   UNL     1      50.532  52.252  20.758  1.00  0.00    +0.101 C 
BRANCH  25  26
ATOM     26  C   UNL     1      51.363  51.034  20.334  1.00  0.00    +0.024 C 
BRANCH  26  27
ATOM     27  C   UNL     1      50.814  50.250  19.129  1.00  0.00    +0.084 C 
ATOM     28  C   UNL     1      49.859  51.074  18.265  1.00  0.00    +0.051 C 
ATOM     29  C   UNL     1      50.182  48.916  19.515  1.00  0.00    +0.227 C 
ATOM     30  C   UNL     1      49.323  50.251  17.126  1.00  0.00    -0.024 A 
ATOM     31  N   UNL     1      49.462  48.288  18.531  1.00  0.00    -0.326 N 
ATOM     32  O   UNL     1      50.358  48.367  20.599  1.00  0.00    -0.274 OA
ATOM     33  C   UNL     1      48.944  50.843  15.917  1.00  0.00    +0.006 A 
ATOM     34  C   UNL     1      49.107  48.881  17.316  1.00  0.00    +0.044 A 
ATOM     35  C   UNL     1      48.367  50.069  14.909  1.00  0.00    +0.000 A 
ATOM     36  C   UNL     1      48.514  48.110  16.319  1.00  0.00    +0.026 A 
ATOM     37  C   UNL     1      48.150  48.706  15.110  1.00  0.00    +0.002 A 
ATOM     38  H   UNL     1      49.169  47.342  18.737  1.00  0.00    +0.169 HD
ENDBRANCH  26  27
ENDBRANCH  25  26
ENDBRANCH   1  25
TORSDOF 9
ENDMDL
MODEL 4
REMARK VINA RESULT:    -9.246      2.053      9.629
REMARK INTER + INTRA:         -14.843
REMARK INTER:                 -13.726
REMARK INTRA:                  -1.117
REMARK UNBOUND:                -1.003
REMARK SMILES CCN(C(=O)CC[C@@H]1Cc2ccccc2NC1=O)c1c(N)n(Cc2ccccc2)c(=O)[nH]c1=O
REMARK SMILES IDX 4 1 5 2 3 3 2 4 1 5 19 6 20 7 33 8 22 9 32 10 34 11 30 12
REMARK SMILES IDX 31 13 21 15 23 18 24 19 25 20 29 21 26 22 28 23 27 24 6 25
REMARK SMILES IDX 7 26 8 27 9 28 17 29 10 30 16 31 18 32 11 33 15 34 12 35
REMARK SMILES IDX 14 36 13 37
REMARK H PARENT 32 14 21 16 21 17 16 38
ROOT
ATOM      1  C   UNL     1      48.683  49.203  17.569  1.00  0.00    +0.227 C 
ATOM      2  O   UNL     1      49.380  48.778  16.645  1.00  0.00    -0.275 OA
ENDROOT
BRANCH   1   3
ATOM      3  N   UNL     1      47.328  49.526  17.391  1.00  0.00    -0.305 N 
BRANCH   3   4
ATOM      4  C   UNL     1      46.842  50.912  17.270  1.00  0.00    +0.122 C 
ATOM      5  C   UNL     1      47.823  51.831  16.553  1.00  0.00    +0.028 C 
ENDBRANCH   3   4
BRANCH   3   6
ATOM      6  C   UNL     1      46.493  48.512  16.895  1.00  0.00    +0.151 C 
ATOM      7  C   UNL     1      46.428  48.174  15.583  1.00  0.00    +0.137 C 
ATOM      8  C   UNL     1      45.691  47.727  17.883  1.00  0.00    +0.279 C 
ATOM      9  N   UNL     1      45.610  47.116  15.186  1.00  0.00    -0.274 N 
ATOM     10  N   UNL     1      44.769  46.881  17.357  1.00  0.00    -0.272 N 
ATOM     11  O   UNL     1      45.906  47.766  19.092  1.00  0.00    -0.267 OA
ATOM     12  C   UNL     1      44.800  46.418  16.077  1.00  0.00    +0.330 C 
ATOM     13  O   UNL     1      44.149  45.414  15.787  1.00  0.00    -0.248 OA
ATOM     14  H   UNL     1      44.258  46.315  18.015  1.00  0.00    +0.175 HD
BRANCH   7  15
ATOM     15  N   UNL     1      47.158  48.893  14.636  1.00  0.00    -0.383 N 
ATOM     16  H   UNL     1      47.573  49.730  15.039  1.00  0.00    +0.158 HD
ATOM     17  H   UNL     1      47.867  48.315  14.193  1.00  0.00    +0.158 HD
ENDBRANCH   7  15
BRANCH   9  18
ATOM     18  C   UNL     1      45.470  46.749  13.774  1.00  0.00    +0.164 C 
BRANCH  18  19
ATOM     19  C   UNL     1      44.537  47.667  13.010  1.00  0.00    -0.028 A 
ATOM     20  C   UNL     1      45.032  48.498  11.994  1.00  0.00    +0.005 A 
ATOM     21  C   UNL     1      43.163  47.690  13.287  1.00  0.00    +0.005 A 
ATOM     22  C   UNL     1      44.175  49.339  11.280  1.00  0.00    +0.000 A 
ATOM     23  C   UNL     1      42.306  48.531  12.573  1.00  0.00    +0.000 A 
ATOM     24  C   UNL     1      42.813  49.356  11.572  1.00  0.00    +0.000 A 
ENDBRANCH  18  19
ENDBRANCH   9  18
ENDBRANCH   3   6
ENDBRANCH   1   3
BRANCH   1  25
ATOM     25  C   UNL     1      49.231  49.268  18.991  1.00  0.00    +0.101 C 
BRANCH  25  26
ATOM     26  C   UNL     1      50.576  50.004  19.056  1.00  0.00    +0.024 C 
BRANCH  26  27
ATOM     27  C   UNL     1      50.585  51.284  19.908  1.00  0.00    +0.084 C 
ATOM     28  C   UNL     1      50.101  52.515  19.141  1.00  0.00    +0.051 C 
ATOM     29  C   UNL     1      51.931  51.555  20.575  1.00  0.00    +0.227 C 
ATOM     30  C   UNL     1      50.166  53.744  20.007  1.00  0.00    -0.024 A 
ATOM     31  N   UNL     1      52.079  52.795  21.143  1.00  0.00    -0.326 N 
ATOM     32  O   UNL     1      52.815  50.711  20.693  1.00  0.00    -0.274 OA
ATOM     33  C   UNL     1      49.291  54.817  19.812  1.00  0.00    +0.006 A 
ATOM     34  C   UNL     1      51.186  53.855  20.960  1.00  0.00    +0.044 A 
ATOM     35  C   UNL     1      49.431  55.981  20.570  1.00  0.00    +0.000 A 
ATOM     36  C   UNL     1      51.340  55.023  21.704  1.00  0.00    +0.026 A 
ATOM     37  C   UNL     1      50.455  56.085  21.512  1.00  0.00    +0.002 A 
ATOM     38  H   UNL     1      52.907  52.923  21.709  1.00  0.00    +0.169 HD
ENDBRANCH  26  27
ENDBRANCH  25  26
ENDBRANCH   1  25
TORSDOF 9
ENDMDL
MODEL 5
REMARK VINA RESULT:    -8.010      7.955     11.850
REMARK INTER + INTRA:         -12.992
REMARK INTER:                 -12.180
REMARK INTRA:                  -0.812
REMARK UNBOUND:                -1.003
REMARK SMILES CCN(C(=O)CC[C@@H]1Cc2ccccc2NC1=O)c1c(N)n(Cc2ccccc2)c(=O)[nH]c1=O
REMARK SMILES IDX 4 1 5 2 3 3 2 4 1 5 19 6 20 7 33 8 22 9 32 10 34 11 30 12
REMARK SMILES IDX 31 13 21 15 23 18 24 19 25 20 29 21 26 22 28 23 27 24 6 25
REMARK SMILES IDX 7 26 8 27 9 28 17 29 10 30 16 31 18 32 11 33 15 34 12 35
REMARK SMILES IDX 14 36 13 37
REMARK H PARENT 32 14 21 16 21 17 16 38
ROOT
ATOM      1  C   UNL     1      47.057  60.459  18.152  1.00  0.00    +0.227 C 
ATOM      2  O   UNL     1      47.894  61.292  18.509  1.00  0.00    -0.275 OA
ENDROOT
BRANCH   1   3
ATOM      3  N   UNL     1      45.928  60.816  17.396  1.00  0.00    -0.305 N 
BRANCH   3   4
ATOM      4  C   UNL     1      45.229  59.874  16.503  1.00  0.00    +0.122 C 
ATOM      5  C   UNL     1      44.417  60.568  15.418  1.00  0.00    +0.028 C 
ENDBRANCH   3   4
BRANCH   3   6
ATOM      6  C   UNL     1      45.209  61.944  17.823  1.00  0.00    +0.151 C 
ATOM      7  C   UNL     1      45.398  63.186  17.313  1.00  0.00    +0.137 C 
ATOM      8  C   UNL     1      44.137  61.739  18.845  1.00  0.00    +0.279 C 
ATOM      9  N   UNL     1      44.600  64.240  17.758  1.00  0.00    -0.274 N 
ATOM     10  N   UNL     1      43.588  62.868  19.360  1.00  0.00    -0.272 N 
ATOM     11  O   UNL     1      43.706  60.626  19.139  1.00  0.00    -0.267 OA
ATOM     12  C   UNL     1      43.645  64.087  18.759  1.00  0.00    +0.330 C 
ATOM     13  O   UNL     1      42.851  64.963  19.103  1.00  0.00    -0.248 OA
ATOM     14  H   UNL     1      42.833  62.737  20.013  1.00  0.00    +0.175 HD
BRANCH   7  15
ATOM     15  N   UNL     1      46.397  63.411  16.364  1.00  0.00    -0.383 N 
ATOM     16  H   UNL     1      46.955  62.576  16.204  1.00  0.00    +0.158 HD
ATOM     17  H   UNL     1      46.011  63.762  15.492  1.00  0.00    +0.158 HD
ENDBRANCH   7  15
BRANCH   9  18
ATOM     18  C   UNL     1      44.803  65.608  17.272  1.00  0.00    +0.164 C 
BRANCH  18  19
ATOM     19  C   UNL     1      43.863  65.984  16.144  1.00  0.00    -0.028 A 
ATOM     20  C   UNL     1      42.844  66.926  16.352  1.00  0.00    +0.005 A 
ATOM     21  C   UNL     1      44.004  65.418  14.869  1.00  0.00    +0.005 A 
ATOM     22  C   UNL     1      41.980  67.283  15.315  1.00  0.00    +0.000 A 
ATOM     23  C   UNL     1      43.141  65.776  13.831  1.00  0.00    +0.000 A 
ATOM     24  C   UNL     1      42.128  66.706  14.055  1.00  0.00    +0.000 A 
ENDBRANCH  18  19
ENDBRANCH   9  18
ENDBRANCH   3   6
ENDBRANCH   1   3
BRANCH   1  25
ATOM     25  C   UNL     1      47.284  58.971  18.401  1.00  0.00    +0.101 C 
BRANCH  25  26
ATOM     26  C   UNL     1      47.494  58.663  19.889  1.00  0.00    +0.024 C 
BRANCH  26  27
ATOM     27  C   UNL     1      48.678  57.735  20.208  1.00  0.00    +0.084 C 
ATOM     28  C   UNL     1      48.358  56.258  19.979  1.00  0.00    +0.051 C 
ATOM     29  C   UNL     1      49.258  57.954  21.603  1.00  0.00    +0.227 C 
ATOM     30  C   UNL     1      49.534  55.393  20.341  1.00  0.00    -0.024 A 
ATOM     31  N   UNL     1      50.146  57.004  22.038  1.00  0.00    -0.326 N 
ATOM     32  O   UNL     1      49.035  58.951  22.284  1.00  0.00    -0.274 OA
ATOM     33  C   UNL     1      49.750  54.161  19.716  1.00  0.00    +0.006 A 
ATOM     34  C   UNL     1      50.371  55.784  21.393  1.00  0.00    +0.044 A 
ATOM     35  C   UNL     1      50.798  53.338  20.133  1.00  0.00    +0.000 A 
ATOM     36  C   UNL     1      51.406  54.956  21.824  1.00  0.00    +0.026 A 
ATOM     37  C   UNL     1      51.622  53.733  21.187  1.00  0.00    +0.002 A 
ATOM     38  H   UNL     1      50.639  57.222  22.894  1.00  0.00    +0.169 HD
ENDBRANCH  26  27
ENDBRANCH  25  26
ENDBRANCH   1  25
TORSDOF 9
ENDMDL
