MODEL 1
REMARK VINA RESULT:    -9.033      0.000      0.000
REMARK INTER + INTRA:         -15.557
REMARK INTER:                 -14.313
REMARK INTRA:                  -1.244
REMARK UNBOUND:                -1.244
REMARK SMILES O=C(CNC(=O)CNC(=O)c1ccc(Cl)cc1Cl)NCCCSc1ccc(F)cc1
REMARK SMILES IDX 19 1 2 2 1 3 20 5 21 6 22 7 23 8 24 9 26 10 25 11 27 12
REMARK SMILES IDX 29 13 30 14 28 15 3 16 4 17 5 18 6 19 7 21 8 22 9 23 10 24
REMARK SMILES IDX 11 26 12 27 17 28 13 29 16 30 14 31 18 32 15 33
REMARK H PARENT 19 4 4 20 8 25
ROOT
ATOM      1  N   UNL     1      50.974  50.198  18.042  1.00  0.00    -0.355 N 
ATOM      2  C   UNL     1      52.248  50.693  18.246  1.00  0.00    +0.239 C 
ATOM      3  O   UNL     1      52.832  51.439  17.466  1.00  0.00    -0.273 OA
ATOM      4  H   UNL     1      50.474  49.977  18.903  1.00  0.00    +0.163 HD
ENDROOT
BRANCH   1   5
ATOM      5  C   UNL     1      50.167  50.609  16.910  1.00  0.00    +0.116 C 
BRANCH   5   6
ATOM      6  C   UNL     1      49.059  51.612  17.241  1.00  0.00    +0.032 C 
BRANCH   6   7
ATOM      7  C   UNL     1      47.739  51.414  16.499  1.00  0.00    +0.077 C 
BRANCH   7   8
ATOM      8  S   UNL     1      47.577  49.764  15.717  1.00  0.00    -0.126 SA
BRANCH   8   9
ATOM      9  C   UNL     1      46.585  48.913  16.932  1.00  0.00    +0.007 A 
ATOM     10  C   UNL     1      46.308  47.907  19.124  1.00  0.00    +0.040 A 
ATOM     11  C   UNL     1      47.104  48.573  18.190  1.00  0.00    +0.018 A 
ATOM     12  C   UNL     1      45.000  47.573  18.791  1.00  0.00    +0.123 A 
ATOM     13  C   UNL     1      44.475  47.892  17.544  1.00  0.00    +0.040 A 
ATOM     14  C   UNL     1      45.271  48.555  16.610  1.00  0.00    +0.018 A 
ATOM     15  F   UNL     1      44.238  46.914  19.675  1.00  0.00    -0.207 F 
ENDBRANCH   8   9
ENDBRANCH   7   8
ENDBRANCH   6   7
ENDBRANCH   5   6
ENDBRANCH   1   5
BRANCH   2  16
ATOM     16  C   UNL     1      52.845  50.295  19.595  1.00  0.00    +0.216 C 
BRANCH  16  17
ATOM     17  N   UNL     1      52.750  51.412  20.513  1.00  0.00    -0.346 N 
ATOM     18  C   UNL     1      51.660  51.542  21.350  1.00  0.00    +0.239 C 
ATOM     19  O   UNL     1      50.734  50.730  21.353  1.00  0.00    -0.273 OA
ATOM     20  H   UNL     1      53.134  52.293  20.177  1.00  0.00    +0.164 HD
BRANCH  18  21
ATOM     21  C   UNL     1      51.618  52.835  22.185  1.00  0.00    +0.216 C 
BRANCH  21  22
ATOM     22  N   UNL     1      50.696  53.846  21.678  1.00  0.00    -0.343 N 
ATOM     23  C   UNL     1      51.163  55.084  21.292  1.00  0.00    +0.253 C 
ATOM     24  O   UNL     1      52.348  55.387  21.298  1.00  0.00    -0.269 OA
ATOM     25  H   UNL     1      49.717  53.753  21.928  1.00  0.00    +0.164 HD
BRANCH  23  26
ATOM     26  C   UNL     1      50.126  56.081  20.959  1.00  0.00    +0.058 A 
ATOM     27  C   UNL     1      49.884  57.122  21.869  1.00  0.00    +0.017 A 
ATOM     28  C   UNL     1      49.391  55.997  19.768  1.00  0.00    +0.055 A 
ATOM     29  C   UNL     1      48.908  58.079  21.577  1.00  0.00    +0.021 A 
ATOM     30  C   UNL     1      48.418  56.959  19.483  1.00  0.00    +0.041 A 
ATOM     31  C   UNL     1      48.185  57.997  20.387  1.00  0.00    +0.042 A 
ATOM     32 Cl   UNL     1      49.680  54.781  18.576  1.00  0.00    -0.083 Cl
ATOM     33 Cl   UNL     1      47.010  59.199  20.018  1.00  0.00    -0.084 Cl
ENDBRANCH  23  26
ENDBRANCH  21  22
ENDBRANCH  18  21
ENDBRANCH  16  17
ENDBRANCH   2  16
TORSDOF 10
ENDMDL
MODEL 2
REMARK VINA RESULT:    -8.561      4.309      8.999
REMARK INTER + INTRA:         -14.810
REMARK INTER:                 -13.606
REMARK INTRA:                  -1.205
REMARK UNBOUND:                -1.244
REMARK SMILES O=C(CNC(=O)CNC(=O)c1ccc(Cl)cc1Cl)NCCCSc1ccc(F)cc1
REMARK SMILES IDX 19 1 2 2 1 3 20 5 21 6 22 7 23 8 24 9 26 10 25 11 27 12
REMARK SMILES IDX 29 13 30 14 28 15 3 16 4 17 5 18 6 19 7 21 8 22 9 23 10 24
REMARK SMILES IDX 11 26 12 27 17 28 13 29 16 30 14 31 18 32 15 33
REMARK H PARENT 19 4 4 20 8 25
ROOT
ATOM      1  N   UNL     1      51.669  51.701  19.447  1.00  0.00    -0.355 N 
ATOM      2  C   UNL     1      50.803  51.982  18.409  1.00  0.00    +0.239 C 
ATOM      3  O   UNL     1      50.325  53.091  18.190  1.00  0.00    -0.273 OA
ATOM      4  H   UNL     1      52.295  50.916  19.264  1.00  0.00    +0.163 HD
ENDROOT
BRANCH   1   5
ATOM      5  C   UNL     1      52.172  52.739  20.326  1.00  0.00    +0.116 C 
BRANCH   5   6
ATOM      6  C   UNL     1      51.440  52.854  21.667  1.00  0.00    +0.032 C 
BRANCH   6   7
ATOM      7  C   UNL     1      51.583  54.192  22.389  1.00  0.00    +0.077 C 
BRANCH   7   8
ATOM      8  S   UNL     1      51.984  55.590  21.274  1.00  0.00    -0.126 SA
BRANCH   8   9
ATOM      9  C   UNL     1      50.379  56.350  21.099  1.00  0.00    +0.007 A 
ATOM     10  C   UNL     1      48.154  56.419  20.132  1.00  0.00    +0.040 A 
ATOM     11  C   UNL     1      49.402  55.805  20.253  1.00  0.00    +0.018 A 
ATOM     12  C   UNL     1      47.892  57.581  20.849  1.00  0.00    +0.123 A 
ATOM     13  C   UNL     1      48.855  58.140  21.682  1.00  0.00    +0.040 A 
ATOM     14  C   UNL     1      50.103  57.529  21.801  1.00  0.00    +0.018 A 
ATOM     15  F   UNL     1      46.704  58.187  20.721  1.00  0.00    -0.207 F 
ENDBRANCH   8   9
ENDBRANCH   7   8
ENDBRANCH   6   7
ENDBRANCH   5   6
ENDBRANCH   1   5
BRANCH   2  16
ATOM     16  C   UNL     1      50.558  50.791  17.484  1.00  0.00    +0.216 C 
BRANCH  16  17
ATOM     17  N   UNL     1      49.264  50.208  17.779  1.00  0.00    -0.346 N 
ATOM     18  C   UNL     1      49.129  49.274  18.786  1.00  0.00    +0.239 C 
ATOM     19  O   UNL     1      50.083  48.899  19.468  1.00  0.00    -0.273 OA
ATOM     20  H   UNL     1      48.655  50.059  16.978  1.00  0.00    +0.164 HD
BRANCH  18  21
ATOM     21  C   UNL     1      47.730  48.640  18.916  1.00  0.00    +0.216 C 
BRANCH  21  22
ATOM     22  N   UNL     1      47.174  48.157  17.656  1.00  0.00    -0.343 N 
ATOM     23  C   UNL     1      46.323  48.953  16.920  1.00  0.00    +0.253 C 
ATOM     24  O   UNL     1      46.032  50.098  17.236  1.00  0.00    -0.269 OA
ATOM     25  H   UNL     1      47.145  47.153  17.512  1.00  0.00    +0.164 HD
BRANCH  23  26
ATOM     26  C   UNL     1      45.688  48.302  15.757  1.00  0.00    +0.058 A 
ATOM     27  C   UNL     1      44.483  47.610  15.954  1.00  0.00    +0.017 A 
ATOM     28  C   UNL     1      46.268  48.363  14.482  1.00  0.00    +0.055 A 
ATOM     29  C   UNL     1      43.861  46.985  14.870  1.00  0.00    +0.021 A 
ATOM     30  C   UNL     1      45.639  47.737  13.402  1.00  0.00    +0.041 A 
ATOM     31  C   UNL     1      44.437  47.055  13.601  1.00  0.00    +0.042 A 
ATOM     32 Cl   UNL     1      47.713  49.250  14.155  1.00  0.00    -0.083 Cl
ATOM     33 Cl   UNL     1      43.647  46.314  12.263  1.00  0.00    -0.084 Cl
ENDBRANCH  23  26
ENDBRANCH  21  22
ENDBRANCH  18  21
ENDBRANCH  16  17
ENDBRANCH   2  16
TORSDOF 10
ENDMDL
MODEL 3
REMARK VINA RESULT:    -8.539      2.088      2.903
REMARK INTER + INTRA:         -14.775
REMARK INTER:                 -13.516
REMARK INTRA:                  -1.259
REMARK UNBOUND:                -1.244
REMARK SMILES O=C(CNC(=O)CNC(=O)c1ccc(Cl)cc1Cl)NCCCSc1ccc(F)cc1
REMARK SMILES IDX 19 1 2 2 1 3 20 5 21 6 22 7 23 8 24 9 26 10 25 11 27 12
REMARK SMILES IDX 29 13 30 14 28 15 3 16 4 17 5 18 6 19 7 21 8 22 9 23 10 24
REMARK SMILES IDX 11 26 12 27 17 28 13 29 16 30 14 31 18 32 15 33
REMARK H PARENT 19 4 4 20 8 25
ROOT
ATOM      1  N   UNL     1      49.995  49.218  19.017  1.00  0.00    -0.355 N 
ATOM      2  C   UNL     1      50.805  49.278  20.135  1.00  0.00    +0.239 C 
ATOM      3  O   UNL     1      50.395  49.195  21.289  1.00  0.00    -0.273 OA
ATOM      4  H   UNL     1      50.468  48.873  18.182  1.00  0.00    +0.163 HD
ENDROOT
BRANCH   1   5
ATOM      5  C   UNL     1      48.574  48.948  19.116  1.00  0.00    +0.116 C 
BRANCH   5   6
ATOM      6  C   UNL     1      47.731  49.520  17.972  1.00  0.00    +0.032 C 
BRANCH   6   7
ATOM      7  C   UNL     1      48.463  49.736  16.650  1.00  0.00    +0.077 C 
BRANCH   7   8
ATOM      8  S   UNL     1      48.650  48.208  15.656  1.00  0.00    -0.126 SA
BRANCH   8   9
ATOM      9  C   UNL     1      46.946  47.706  15.488  1.00  0.00    +0.007 A 
ATOM     10  C   UNL     1      44.745  47.956  14.496  1.00  0.00    +0.040 A 
ATOM     11  C   UNL     1      46.074  48.366  14.610  1.00  0.00    +0.018 A 
ATOM     12  C   UNL     1      44.290  46.893  15.268  1.00  0.00    +0.123 A 
ATOM     13  C   UNL     1      45.139  46.235  16.152  1.00  0.00    +0.040 A 
ATOM     14  C   UNL     1      46.467  46.647  16.268  1.00  0.00    +0.018 A 
ATOM     15  F   UNL     1      43.010  46.507  15.180  1.00  0.00    -0.207 F 
ENDBRANCH   8   9
ENDBRANCH   7   8
ENDBRANCH   6   7
ENDBRANCH   5   6
ENDBRANCH   1   5
BRANCH   2  16
ATOM     16  C   UNL     1      52.293  49.368  19.802  1.00  0.00    +0.216 C 
BRANCH  16  17
ATOM     17  N   UNL     1      52.714  50.754  19.843  1.00  0.00    -0.346 N 
ATOM     18  C   UNL     1      52.540  51.573  18.746  1.00  0.00    +0.239 C 
ATOM     19  O   UNL     1      52.029  51.171  17.700  1.00  0.00    -0.273 OA
ATOM     20  H   UNL     1      53.556  50.943  20.384  1.00  0.00    +0.164 HD
BRANCH  18  21
ATOM     21  C   UNL     1      53.143  52.985  18.873  1.00  0.00    +0.216 C 
BRANCH  21  22
ATOM     22  N   UNL     1      52.163  54.032  19.144  1.00  0.00    -0.343 N 
ATOM     23  C   UNL     1      51.622  54.170  20.404  1.00  0.00    +0.253 C 
ATOM     24  O   UNL     1      51.956  53.482  21.359  1.00  0.00    -0.269 OA
ATOM     25  H   UNL     1      51.653  54.411  18.352  1.00  0.00    +0.164 HD
BRANCH  23  26
ATOM     26  C   UNL     1      50.519  55.145  20.520  1.00  0.00    +0.058 A 
ATOM     27  C   UNL     1      49.310  54.869  19.862  1.00  0.00    +0.017 A 
ATOM     28  C   UNL     1      50.666  56.324  21.265  1.00  0.00    +0.055 A 
ATOM     29  C   UNL     1      48.251  55.775  19.957  1.00  0.00    +0.021 A 
ATOM     30  C   UNL     1      49.601  57.225  21.356  1.00  0.00    +0.041 A 
ATOM     31  C   UNL     1      48.398  56.944  20.705  1.00  0.00    +0.042 A 
ATOM     32 Cl   UNL     1      52.100  56.697  22.150  1.00  0.00    -0.083 Cl
ATOM     33 Cl   UNL     1      47.077  58.038  20.847  1.00  0.00    -0.084 Cl
ENDBRANCH  23  26
ENDBRANCH  21  22
ENDBRANCH  18  21
ENDBRANCH  16  17
ENDBRANCH   2  16
TORSDOF 10
ENDMDL
MODEL 4
REMARK VINA RESULT:    -8.482      1.845      2.235
REMARK INTER + INTRA:         -14.684
REMARK INTER:                 -13.770
REMARK INTRA:                  -0.914
REMARK UNBOUND:                -1.244
REMARK SMILES O=C(CNC(=O)CNC(=O)c1ccc(Cl)cc1Cl)NCCCSc1ccc(F)cc1
REMARK SMILES IDX 19 1 2 2 1 3 20 5 21 6 22 7 23 8 24 9 26 10 25 11 27 12
REMARK SMILES IDX 29 13 30 14 28 15 3 16 4 17 5 18 6 19 7 21 8 22 9 23 10 24
REMARK SMILES IDX 11 26 12 27 17 28 13 29 16 30 14 31 18 32 15 33
REMARK H PARENT 19 4 4 20 8 25
ROOT
ATOM      1  N   UNL     1      49.630  50.360  18.777  1.00  0.00    -0.355 N 
ATOM      2  C   UNL     1      49.821  49.035  19.116  1.00  0.00    +0.239 C 
ATOM      3  O   UNL     1      49.267  48.093  18.557  1.00  0.00    -0.273 OA
ATOM      4  H   UNL     1      50.424  50.962  18.996  1.00  0.00    +0.163 HD
ENDROOT
BRANCH   1   5
ATOM      5  C   UNL     1      48.814  50.749  17.643  1.00  0.00    +0.116 C 
BRANCH   5   6
ATOM      6  C   UNL     1      49.557  50.797  16.304  1.00  0.00    +0.032 C 
BRANCH   6   7
ATOM      7  C   UNL     1      49.448  49.544  15.439  1.00  0.00    +0.077 C 
BRANCH   7   8
ATOM      8  S   UNL     1      47.840  49.388  14.572  1.00  0.00    -0.126 SA
BRANCH   8   9
ATOM      9  C   UNL     1      46.850  48.611  15.838  1.00  0.00    +0.007 A 
ATOM     10  C   UNL     1      45.155  48.713  17.572  1.00  0.00    +0.040 A 
ATOM     11  C   UNL     1      45.917  49.343  16.587  1.00  0.00    +0.018 A 
ATOM     12  C   UNL     1      45.336  47.355  17.811  1.00  0.00    +0.123 A 
ATOM     13  C   UNL     1      46.266  46.618  17.086  1.00  0.00    +0.040 A 
ATOM     14  C   UNL     1      47.030  47.248  16.103  1.00  0.00    +0.018 A 
ATOM     15  F   UNL     1      44.624  46.749  18.771  1.00  0.00    -0.207 F 
ENDBRANCH   8   9
ENDBRANCH   7   8
ENDBRANCH   6   7
ENDBRANCH   5   6
ENDBRANCH   1   5
BRANCH   2  16
ATOM     16  C   UNL     1      50.870  48.833  20.208  1.00  0.00    +0.216 C 
BRANCH  16  17
ATOM     17  N   UNL     1      50.967  50.034  21.013  1.00  0.00    -0.346 N 
ATOM     18  C   UNL     1      52.071  50.857  20.914  1.00  0.00    +0.239 C 
ATOM     19  O   UNL     1      53.007  50.613  20.152  1.00  0.00    -0.273 OA
ATOM     20  H   UNL     1      50.566  49.973  21.947  1.00  0.00    +0.164 HD
BRANCH  18  21
ATOM     21  C   UNL     1      52.111  52.031  21.911  1.00  0.00    +0.216 C 
BRANCH  21  22
ATOM     22  N   UNL     1      51.105  53.060  21.665  1.00  0.00    -0.343 N 
ATOM     23  C   UNL     1      51.371  54.102  20.804  1.00  0.00    +0.253 C 
ATOM     24  O   UNL     1      52.413  54.202  20.170  1.00  0.00    -0.269 OA
ATOM     25  H   UNL     1      50.379  53.180  22.364  1.00  0.00    +0.164 HD
BRANCH  23  26
ATOM     26  C   UNL     1      50.353  55.171  20.764  1.00  0.00    +0.058 A 
ATOM     27  C   UNL     1      49.200  54.966  19.990  1.00  0.00    +0.017 A 
ATOM     28  C   UNL     1      50.525  56.368  21.473  1.00  0.00    +0.055 A 
ATOM     29  C   UNL     1      48.221  55.962  19.936  1.00  0.00    +0.021 A 
ATOM     30  C   UNL     1      49.541  57.358  21.415  1.00  0.00    +0.041 A 
ATOM     31  C   UNL     1      48.392  57.148  20.649  1.00  0.00    +0.042 A 
ATOM     32 Cl   UNL     1      51.887  56.661  22.493  1.00  0.00    -0.083 Cl
ATOM     33 Cl   UNL     1      47.165  58.354  20.606  1.00  0.00    -0.084 Cl
ENDBRANCH  23  26
ENDBRANCH  21  22
ENDBRANCH  18  21
ENDBRANCH  16  17
ENDBRANCH   2  16
TORSDOF 10
ENDMDL
MODEL 5
REMARK VINA RESULT:    -8.197      2.207      3.542
REMARK INTER + INTRA:         -14.233
REMARK INTER:                 -13.183
REMARK INTRA:                  -1.050
REMARK UNBOUND:                -1.244
REMARK SMILES O=C(CNC(=O)CNC(=O)c1ccc(Cl)cc1Cl)NCCCSc1ccc(F)cc1
REMARK SMILES IDX 19 1 2 2 1 3 20 5 21 6 22 7 23 8 24 9 26 10 25 11 27 12
REMARK SMILES IDX 29 13 30 14 28 15 3 16 4 17 5 18 6 19 7 21 8 22 9 23 10 24
REMARK SMILES IDX 11 26 12 27 17 28 13 29 16 30 14 31 18 32 15 33
REMARK H PARENT 19 4 4 20 8 25
ROOT
ATOM      1  N   UNL     1      50.540  52.399  19.427  1.00  0.00    -0.355 N 
ATOM      2  C   UNL     1      51.666  53.199  19.401  1.00  0.00    +0.239 C 
ATOM      3  O   UNL     1      52.351  53.392  18.401  1.00  0.00    -0.273 OA
ATOM      4  H   UNL     1      49.863  52.662  20.143  1.00  0.00    +0.163 HD
ENDROOT
BRANCH   1   5
ATOM      5  C   UNL     1      50.009  51.787  18.226  1.00  0.00    +0.116 C 
BRANCH   5   6
ATOM      6  C   UNL     1      49.063  52.678  17.415  1.00  0.00    +0.032 C 
BRANCH   6   7
ATOM      7  C   UNL     1      47.951  51.954  16.660  1.00  0.00    +0.077 C 
BRANCH   7   8
ATOM      8  S   UNL     1      48.397  50.250  16.153  1.00  0.00    -0.126 SA
BRANCH   8   9
ATOM      9  C   UNL     1      47.170  49.304  17.038  1.00  0.00    +0.007 A 
ATOM     10  C   UNL     1      44.977  48.272  17.179  1.00  0.00    +0.040 A 
ATOM     11  C   UNL     1      45.921  49.014  16.468  1.00  0.00    +0.018 A 
ATOM     12  C   UNL     1      45.281  47.833  18.463  1.00  0.00    +0.123 A 
ATOM     13  C   UNL     1      46.509  48.122  19.047  1.00  0.00    +0.040 A 
ATOM     14  C   UNL     1      47.452  48.866  18.336  1.00  0.00    +0.018 A 
ATOM     15  F   UNL     1      44.371  47.139  19.161  1.00  0.00    -0.207 F 
ENDBRANCH   8   9
ENDBRANCH   7   8
ENDBRANCH   6   7
ENDBRANCH   5   6
ENDBRANCH   1   5
BRANCH   2  16
ATOM     16  C   UNL     1      51.939  53.907  20.726  1.00  0.00    +0.216 C 
BRANCH  16  17
ATOM     17  N   UNL     1      51.313  55.214  20.714  1.00  0.00    -0.346 N 
ATOM     18  C   UNL     1      51.731  56.200  21.585  1.00  0.00    +0.239 C 
ATOM     19  O   UNL     1      52.638  56.017  22.398  1.00  0.00    -0.273 OA
ATOM     20  H   UNL     1      50.316  55.223  20.510  1.00  0.00    +0.164 HD
BRANCH  18  21
ATOM     21  C   UNL     1      50.903  57.498  21.559  1.00  0.00    +0.216 C 
BRANCH  21  22
ATOM     22  N   UNL     1      50.198  57.733  20.302  1.00  0.00    -0.343 N 
ATOM     23  C   UNL     1      48.821  57.725  20.264  1.00  0.00    +0.253 C 
ATOM     24  O   UNL     1      48.121  57.580  21.257  1.00  0.00    -0.269 OA
ATOM     25  H   UNL     1      50.709  57.564  19.442  1.00  0.00    +0.164 HD
BRANCH  23  26
ATOM     26  C   UNL     1      48.220  57.802  18.918  1.00  0.00    +0.058 A 
ATOM     27  C   UNL     1      48.424  56.731  18.033  1.00  0.00    +0.017 A 
ATOM     28  C   UNL     1      47.466  58.915  18.519  1.00  0.00    +0.055 A 
ATOM     29  C   UNL     1      47.865  56.779  16.753  1.00  0.00    +0.021 A 
ATOM     30  C   UNL     1      46.910  58.955  17.237  1.00  0.00    +0.041 A 
ATOM     31  C   UNL     1      47.109  57.885  16.363  1.00  0.00    +0.042 A 
ATOM     32 Cl   UNL     1      47.123  60.237  19.575  1.00  0.00    -0.083 Cl
ATOM     33 Cl   UNL     1      46.394  57.920  14.797  1.00  0.00    -0.084 Cl
ENDBRANCH  23  26
ENDBRANCH  21  22
ENDBRANCH  18  21
ENDBRANCH  16  17
ENDBRANCH   2  16
TORSDOF 10
ENDMDL
