MODEL 1
REMARK VINA RESULT:    -6.506      0.000      0.000
REMARK INTER + INTRA:          -8.556
REMARK INTER:                  -8.408
REMARK INTRA:                  -0.147
REMARK UNBOUND:                -0.147
REMARK SMILES C#CC(CC)(CC)NC(=O)C[NH+]1CCNC(=O)C1
REMARK SMILES IDX 8 1 9 2 10 3 3 5 2 6 1 7 4 8 5 9 6 10 7 11 11 12 12 13 13 14
REMARK SMILES IDX 18 15 14 16 16 17 15 18 17 19
REMARK H PARENT 8 4 12 20 15 21
ROOT
ATOM      1  N   UNL     1      50.525  55.636  20.005  1.00  0.00    -0.335 N 
ATOM      2  C   UNL     1      51.456  54.759  19.492  1.00  0.00    +0.276 C 
ATOM      3  O   UNL     1      52.663  54.807  19.708  1.00  0.00    -0.268 OA
ATOM      4  H   UNL     1      49.563  55.326  20.015  1.00  0.00    +0.165 HD
ENDROOT
BRANCH   1   5
ATOM      5  C   UNL     1      50.828  56.642  21.046  1.00  0.00    +0.100 C 
ATOM      6  C   UNL     1      51.324  55.924  22.246  1.00  0.00    -0.078 C 
ATOM      7  C   UNL     1      51.721  55.343  23.220  1.00  0.00    +0.006 C 
BRANCH   5   8
ATOM      8  C   UNL     1      49.525  57.419  21.410  1.00  0.00    +0.038 C 
ATOM      9  C   UNL     1      48.279  57.063  20.598  1.00  0.00    +0.007 C 
ENDBRANCH   5   8
BRANCH   5  10
ATOM     10  C   UNL     1      51.908  57.671  20.597  1.00  0.00    +0.038 C 
ATOM     11  C   UNL     1      52.552  58.470  21.726  1.00  0.00    +0.007 C 
ENDBRANCH   5  10
ENDBRANCH   1   5
BRANCH   2  12
ATOM     12  C   UNL     1      50.891  53.699  18.538  1.00  0.00    +0.364 C 
BRANCH  12  13
ATOM     13  N   UNL     1      50.106  52.580  19.239  1.00  0.00    -0.318 N 
ATOM     14  C   UNL     1      49.545  51.493  18.326  1.00  0.00    +0.284 C 
ATOM     15  C   UNL     1      50.954  51.913  20.323  1.00  0.00    +0.364 C 
ATOM     16  C   UNL     1      50.687  50.719  17.656  1.00  0.00    +0.177 C 
ATOM     17  C   UNL     1      52.013  50.946  19.775  1.00  0.00    +0.275 C 
ATOM     18  N   UNL     1      51.740  50.322  18.583  1.00  0.00    -0.346 N 
ATOM     19  O   UNL     1      53.042  50.695  20.391  1.00  0.00    -0.269 OA
ATOM     20  H   UNL     1      49.299  53.028  19.693  1.00  0.00    +0.349 HD
ATOM     21  H   UNL     1      52.479  49.704  18.253  1.00  0.00    +0.163 HD
ENDBRANCH  12  13
ENDBRANCH   2  12
TORSDOF 5
ENDMDL
MODEL 2
REMARK VINA RESULT:    -6.304      1.657      2.869
REMARK INTER + INTRA:          -8.294
REMARK INTER:                  -8.319
REMARK INTRA:                   0.024
REMARK UNBOUND:                -0.147
REMARK SMILES C#CC(CC)(CC)NC(=O)C[NH+]1CCNC(=O)C1
REMARK SMILES IDX 8 1 9 2 10 3 3 5 2 6 1 7 4 8 5 9 6 10 7 11 11 12 12 13 13 14
REMARK SMILES IDX 18 15 14 16 16 17 15 18 17 19
REMARK H PARENT 8 4 12 20 15 21
ROOT
ATOM      1  N   UNL     1      50.289  54.777  20.785  1.00  0.00    -0.335 N 
ATOM      2  C   UNL     1      50.100  54.272  19.516  1.00  0.00    +0.276 C 
ATOM      3  O   UNL     1      50.019  54.946  18.495  1.00  0.00    -0.268 OA
ATOM      4  H   UNL     1      50.642  54.137  21.483  1.00  0.00    +0.165 HD
ENDROOT
BRANCH   1   5
ATOM      5  C   UNL     1      50.616  56.191  21.067  1.00  0.00    +0.100 C 
ATOM      6  C   UNL     1      49.355  56.972  21.008  1.00  0.00    -0.078 C 
ATOM      7  C   UNL     1      48.336  57.607  20.957  1.00  0.00    +0.006 C 
BRANCH   5   8
ATOM      8  C   UNL     1      51.603  56.721  19.983  1.00  0.00    +0.038 C 
ATOM      9  C   UNL     1      52.823  57.488  20.499  1.00  0.00    +0.007 C 
ENDBRANCH   5   8
BRANCH   5  10
ATOM     10  C   UNL     1      51.265  56.395  22.469  1.00  0.00    +0.038 C 
ATOM     11  C   UNL     1      51.696  55.114  23.177  1.00  0.00    +0.007 C 
ENDBRANCH   5  10
ENDBRANCH   1   5
BRANCH   2  12
ATOM     12  C   UNL     1      49.926  52.749  19.445  1.00  0.00    +0.364 C 
BRANCH  12  13
ATOM     13  N   UNL     1      51.216  51.986  19.110  1.00  0.00    -0.318 N 
ATOM     14  C   UNL     1      52.385  52.211  20.065  1.00  0.00    +0.284 C 
ATOM     15  C   UNL     1      50.952  50.482  19.012  1.00  0.00    +0.364 C 
ATOM     16  C   UNL     1      52.043  51.675  21.461  1.00  0.00    +0.177 C 
ATOM     17  C   UNL     1      50.793  49.790  20.373  1.00  0.00    +0.275 C 
ATOM     18  N   UNL     1      51.456  50.341  21.442  1.00  0.00    -0.346 N 
ATOM     19  O   UNL     1      50.143  48.760  20.504  1.00  0.00    -0.269 OA
ATOM     20  H   UNL     1      51.522  52.319  18.187  1.00  0.00    +0.349 HD
ATOM     21  H   UNL     1      51.306  49.857  22.325  1.00  0.00    +0.163 HD
ENDBRANCH  12  13
ENDBRANCH   2  12
TORSDOF 5
ENDMDL
MODEL 3
REMARK VINA RESULT:    -6.255      3.639      7.565
REMARK INTER + INTRA:          -8.230
REMARK INTER:                  -8.362
REMARK INTRA:                   0.132
REMARK UNBOUND:                -0.147
REMARK SMILES C#CC(CC)(CC)NC(=O)C[NH+]1CCNC(=O)C1
REMARK SMILES IDX 8 1 9 2 10 3 3 5 2 6 1 7 4 8 5 9 6 10 7 11 11 12 12 13 13 14
REMARK SMILES IDX 18 15 14 16 16 17 15 18 17 19
REMARK H PARENT 8 4 12 20 15 21
ROOT
ATOM      1  N   UNL     1      47.928  49.774  18.000  1.00  0.00    -0.335 N 
ATOM      2  C   UNL     1      48.627  50.549  17.100  1.00  0.00    +0.276 C 
ATOM      3  O   UNL     1      48.766  50.292  15.909  1.00  0.00    -0.268 OA
ATOM      4  H   UNL     1      47.625  50.225  18.852  1.00  0.00    +0.165 HD
ENDROOT
BRANCH   1   5
ATOM      5  C   UNL     1      47.083  48.624  17.613  1.00  0.00    +0.100 C 
ATOM      6  C   UNL     1      47.969  47.571  17.057  1.00  0.00    -0.078 C 
ATOM      7  C   UNL     1      48.685  46.720  16.603  1.00  0.00    +0.006 C 
BRANCH   5   8
ATOM      8  C   UNL     1      46.065  49.073  16.520  1.00  0.00    +0.038 C 
ATOM      9  C   UNL     1      46.068  48.263  15.223  1.00  0.00    +0.007 C 
ENDBRANCH   5   8
BRANCH   5  10
ATOM     10  C   UNL     1      46.288  48.026  18.812  1.00  0.00    +0.038 C 
ATOM     11  C   UNL     1      44.851  47.622  18.501  1.00  0.00    +0.007 C 
ENDBRANCH   5  10
ENDBRANCH   1   5
BRANCH   2  12
ATOM     12  C   UNL     1      49.311  51.783  17.703  1.00  0.00    +0.364 C 
BRANCH  12  13
ATOM     13  N   UNL     1      50.151  51.486  18.953  1.00  0.00    -0.318 N 
ATOM     14  C   UNL     1      51.266  50.459  18.774  1.00  0.00    +0.284 C 
ATOM     15  C   UNL     1      50.761  52.769  19.521  1.00  0.00    +0.364 C 
ATOM     16  C   UNL     1      52.320  50.985  17.791  1.00  0.00    +0.177 C 
ATOM     17  C   UNL     1      51.968  53.287  18.727  1.00  0.00    +0.275 C 
ATOM     18  N   UNL     1      52.727  52.358  18.058  1.00  0.00    -0.346 N 
ATOM     19  O   UNL     1      52.281  54.471  18.722  1.00  0.00    -0.269 OA
ATOM     20  H   UNL     1      49.506  51.099  19.655  1.00  0.00    +0.349 HD
ATOM     21  H   UNL     1      53.506  52.752  17.533  1.00  0.00    +0.163 HD
ENDBRANCH  12  13
ENDBRANCH   2  12
TORSDOF 5
ENDMDL
MODEL 4
REMARK VINA RESULT:    -6.031      3.735      7.659
REMARK INTER + INTRA:          -7.941
REMARK INTER:                  -7.998
REMARK INTRA:                   0.057
REMARK UNBOUND:                -0.147
REMARK SMILES C#CC(CC)(CC)NC(=O)C[NH+]1CCNC(=O)C1
REMARK SMILES IDX 8 1 9 2 10 3 3 5 2 6 1 7 4 8 5 9 6 10 7 11 11 12 12 13 13 14
REMARK SMILES IDX 18 15 14 16 16 17 15 18 17 19
REMARK H PARENT 8 4 12 20 15 21
ROOT
ATOM      1  N   UNL     1      47.655  49.774  17.895  1.00  0.00    -0.335 N 
ATOM      2  C   UNL     1      48.405  50.560  17.045  1.00  0.00    +0.276 C 
ATOM      3  O   UNL     1      48.702  50.265  15.892  1.00  0.00    -0.268 OA
ATOM      4  H   UNL     1      47.224  50.238  18.682  1.00  0.00    +0.165 HD
ENDROOT
BRANCH   1   5
ATOM      5  C   UNL     1      46.939  48.553  17.469  1.00  0.00    +0.100 C 
ATOM      6  C   UNL     1      47.950  47.567  17.010  1.00  0.00    -0.078 C 
ATOM      7  C   UNL     1      48.766  46.770  16.634  1.00  0.00    +0.006 C 
BRANCH   5   8
ATOM      8  C   UNL     1      45.981  48.899  16.287  1.00  0.00    +0.038 C 
ATOM      9  C   UNL     1      46.175  48.090  15.004  1.00  0.00    +0.007 C 
ENDBRANCH   5   8
BRANCH   5  10
ATOM     10  C   UNL     1      46.100  47.912  18.614  1.00  0.00    +0.038 C 
ATOM     11  C   UNL     1      44.612  47.758  18.320  1.00  0.00    +0.007 C 
ENDBRANCH   5  10
ENDBRANCH   1   5
BRANCH   2  12
ATOM     12  C   UNL     1      48.930  51.863  17.662  1.00  0.00    +0.364 C 
BRANCH  12  13
ATOM     13  N   UNL     1      50.459  51.930  17.777  1.00  0.00    -0.318 N 
ATOM     14  C   UNL     1      51.016  53.163  18.484  1.00  0.00    +0.284 C 
ATOM     15  C   UNL     1      51.012  50.683  18.469  1.00  0.00    +0.364 C 
ATOM     16  C   UNL     1      50.579  53.176  19.954  1.00  0.00    +0.177 C 
ATOM     17  C   UNL     1      50.811  50.678  19.991  1.00  0.00    +0.275 C 
ATOM     18  N   UNL     1      50.760  51.895  20.624  1.00  0.00    -0.346 N 
ATOM     19  O   UNL     1      50.747  49.636  20.633  1.00  0.00    -0.269 OA
ATOM     20  H   UNL     1      50.825  51.953  16.816  1.00  0.00    +0.349 HD
ATOM     21  H   UNL     1      50.609  51.840  21.630  1.00  0.00    +0.163 HD
ENDBRANCH  12  13
ENDBRANCH   2  12
TORSDOF 5
ENDMDL
MODEL 5
REMARK VINA RESULT:    -5.882      1.810      2.188
REMARK INTER + INTRA:          -7.748
REMARK INTER:                  -7.834
REMARK INTRA:                   0.086
REMARK UNBOUND:                -0.147
REMARK SMILES C#CC(CC)(CC)NC(=O)C[NH+]1CCNC(=O)C1
REMARK SMILES IDX 8 1 9 2 10 3 3 5 2 6 1 7 4 8 5 9 6 10 7 11 11 12 12 13 13 14
REMARK SMILES IDX 18 15 14 16 16 17 15 18 17 19
REMARK H PARENT 8 4 12 20 15 21
ROOT
ATOM      1  N   UNL     1      50.648  55.066  20.002  1.00  0.00    -0.335 N 
ATOM      2  C   UNL     1      51.146  53.785  19.897  1.00  0.00    +0.276 C 
ATOM      3  O   UNL     1      52.278  53.441  20.222  1.00  0.00    -0.268 OA
ATOM      4  H   UNL     1      49.642  55.165  20.000  1.00  0.00    +0.165 HD
ENDROOT
BRANCH   1   5
ATOM      5  C   UNL     1      51.344  56.165  20.704  1.00  0.00    +0.100 C 
ATOM      6  C   UNL     1      51.539  55.754  22.117  1.00  0.00    -0.078 C 
ATOM      7  C   UNL     1      51.694  55.425  23.262  1.00  0.00    +0.006 C 
BRANCH   5   8
ATOM      8  C   UNL     1      50.463  57.451  20.657  1.00  0.00    +0.038 C 
ATOM      9  C   UNL     1      49.130  57.383  21.404  1.00  0.00    +0.007 C 
ENDBRANCH   5   8
BRANCH   5  10
ATOM     10  C   UNL     1      52.735  56.495  20.083  1.00  0.00    +0.038 C 
ATOM     11  C   UNL     1      53.530  57.575  20.809  1.00  0.00    +0.007 C 
ENDBRANCH   5  10
ENDBRANCH   1   5
BRANCH   2  12
ATOM     12  C   UNL     1      50.188  52.767  19.264  1.00  0.00    +0.364 C 
BRANCH  12  13
ATOM     13  N   UNL     1      50.778  52.012  18.065  1.00  0.00    -0.318 N 
ATOM     14  C   UNL     1      51.882  51.009  18.392  1.00  0.00    +0.284 C 
ATOM     15  C   UNL     1      49.682  51.288  17.281  1.00  0.00    +0.364 C 
ATOM     16  C   UNL     1      51.326  49.868  19.254  1.00  0.00    +0.177 C 
ATOM     17  C   UNL     1      49.183  50.003  17.955  1.00  0.00    +0.275 C 
ATOM     18  N   UNL     1      50.069  49.325  18.755  1.00  0.00    -0.346 N 
ATOM     19  O   UNL     1      48.057  49.562  17.757  1.00  0.00    -0.269 OA
ATOM     20  H   UNL     1      51.199  52.720  17.450  1.00  0.00    +0.349 HD
ATOM     21  H   UNL     1      49.686  48.489  19.192  1.00  0.00    +0.163 HD
ENDBRANCH  12  13
ENDBRANCH   2  12
TORSDOF 5
ENDMDL
