MODEL 1
REMARK VINA RESULT:    -8.937      0.000      0.000
REMARK INTER + INTRA:         -11.828
REMARK INTER:                 -11.027
REMARK INTRA:                  -0.800
REMARK UNBOUND:                -0.800
REMARK SMILES O=C(NNC(=S)NC[C@H]1CCCO1)[C@H]1Cc2cc(Cl)ccc2O1
REMARK SMILES IDX 4 1 5 2 6 3 7 4 3 7 2 8 1 9 14 11 20 12 21 13 18 14 22 15
REMARK SMILES IDX 17 16 16 17 23 18 15 19 19 20 8 21 9 22 10 23 13 24 11 25
REMARK SMILES IDX 12 26
REMARK H PARENT 4 5 7 6 3 10
ROOT
ATOM      1  N   UNL     1      51.257  54.266  19.635  1.00  0.00    -0.274 N 
ATOM      2  C   UNL     1      51.326  54.094  20.995  1.00  0.00    +0.185 C 
ATOM      3  S   UNL     1      51.696  52.652  21.759  1.00  0.00    -0.039 S 
ATOM      4  N   UNL     1      51.116  55.197  21.764  1.00  0.00    -0.359 N 
ATOM      5  H   UNL     1      50.706  55.042  19.268  1.00  0.00    +0.190 HD
ATOM      6  H   UNL     1      51.091  55.003  22.759  1.00  0.00    +0.163 HD
ENDROOT
BRANCH   1   7
ATOM      7  N   UNL     1      51.263  53.141  18.784  1.00  0.00    -0.265 N 
ATOM      8  C   UNL     1      50.033  52.708  18.310  1.00  0.00    +0.279 C 
ATOM      9  O   UNL     1      49.016  53.390  18.433  1.00  0.00    -0.269 OA
ATOM     10  H   UNL     1      52.048  52.505  18.909  1.00  0.00    +0.191 HD
BRANCH   8  11
ATOM     11  C   UNL     1      50.085  51.339  17.612  1.00  0.00    +0.268 C 
ATOM     12  C   UNL     1      46.087  49.157  17.256  1.00  0.00    +0.024 A 
ATOM     13  C   UNL     1      46.911  50.074  16.597  1.00  0.00    +0.048 A 
ATOM     14  C   UNL     1      46.523  48.537  18.437  1.00  0.00    +0.041 A 
ATOM     15  C   UNL     1      48.146  50.345  17.149  1.00  0.00    +0.123 A 
ATOM     16  C   UNL     1      47.781  48.819  18.976  1.00  0.00    +0.028 A 
ATOM     17  C   UNL     1      48.580  49.735  18.314  1.00  0.00    -0.000 A 
ATOM     18  O   UNL     1      49.055  51.212  16.608  1.00  0.00    -0.480 OA
ATOM     19  C   UNL     1      49.953  50.190  18.626  1.00  0.00    +0.095 C 
ATOM     20 Cl   UNL     1      45.496  47.405  19.230  1.00  0.00    -0.084 Cl
ENDBRANCH   8  11
ENDBRANCH   1   7
BRANCH   4  21
ATOM     21  C   UNL     1      50.731  56.531  21.322  1.00  0.00    +0.147 C 
BRANCH  21  22
ATOM     22  C   UNL     1      49.232  56.662  21.052  1.00  0.00    +0.137 C 
ATOM     23  C   UNL     1      48.658  58.023  21.419  1.00  0.00    +0.036 C 
ATOM     24  O   UNL     1      48.964  56.485  19.649  1.00  0.00    -0.376 OA
ATOM     25  C   UNL     1      47.457  58.098  20.511  1.00  0.00    +0.031 C 
ATOM     26  C   UNL     1      47.977  57.447  19.248  1.00  0.00    +0.160 C 
ENDBRANCH  21  22
ENDBRANCH   4  21
TORSDOF 4
ENDMDL
MODEL 2
REMARK VINA RESULT:    -8.496      2.329      2.742
REMARK INTER + INTRA:         -11.283
REMARK INTER:                 -10.402
REMARK INTRA:                  -0.881
REMARK UNBOUND:                -0.800
REMARK SMILES O=C(NNC(=S)NC[C@H]1CCCO1)[C@H]1Cc2cc(Cl)ccc2O1
REMARK SMILES IDX 4 1 5 2 6 3 7 4 3 7 2 8 1 9 14 11 20 12 21 13 18 14 22 15
REMARK SMILES IDX 17 16 16 17 23 18 15 19 19 20 8 21 9 22 10 23 13 24 11 25
REMARK SMILES IDX 12 26
REMARK H PARENT 4 5 7 6 3 10
ROOT
ATOM      1  N   UNL     1      50.949  53.598  18.660  1.00  0.00    -0.274 N 
ATOM      2  C   UNL     1      50.113  54.686  18.683  1.00  0.00    +0.185 C 
ATOM      3  S   UNL     1      48.479  54.645  18.324  1.00  0.00    -0.039 S 
ATOM      4  N   UNL     1      50.660  55.872  19.069  1.00  0.00    -0.359 N 
ATOM      5  H   UNL     1      51.952  53.754  18.548  1.00  0.00    +0.190 HD
ATOM      6  H   UNL     1      50.027  56.660  18.987  1.00  0.00    +0.163 HD
ENDROOT
BRANCH   1   7
ATOM      7  N   UNL     1      50.511  52.388  18.083  1.00  0.00    -0.265 N 
ATOM      8  C   UNL     1      50.423  51.288  18.924  1.00  0.00    +0.279 C 
ATOM      9  O   UNL     1      50.501  51.402  20.147  1.00  0.00    -0.269 OA
ATOM     10  H   UNL     1      50.690  52.292  17.086  1.00  0.00    +0.191 HD
BRANCH   8  11
ATOM     11  C   UNL     1      50.196  49.959  18.185  1.00  0.00    +0.268 C 
ATOM     12  C   UNL     1      45.929  49.221  16.727  1.00  0.00    +0.024 A 
ATOM     13  C   UNL     1      47.147  49.791  16.347  1.00  0.00    +0.048 A 
ATOM     14  C   UNL     1      45.824  48.527  17.943  1.00  0.00    +0.041 A 
ATOM     15  C   UNL     1      48.221  49.653  17.201  1.00  0.00    +0.123 A 
ATOM     16  C   UNL     1      46.925  48.391  18.792  1.00  0.00    +0.028 A 
ATOM     17  C   UNL     1      48.121  48.969  18.401  1.00  0.00    -0.000 A 
ATOM     18  O   UNL     1      49.470  50.152  16.952  1.00  0.00    -0.480 OA
ATOM     19  C   UNL     1      49.442  48.951  19.068  1.00  0.00    +0.095 C 
ATOM     20 Cl   UNL     1      44.316  47.826  18.392  1.00  0.00    -0.084 Cl
ENDBRANCH   8  11
ENDBRANCH   1   7
BRANCH   4  21
ATOM     21  C   UNL     1      52.058  56.151  19.373  1.00  0.00    +0.147 C 
BRANCH  21  22
ATOM     22  C   UNL     1      52.407  55.922  20.843  1.00  0.00    +0.137 C 
ATOM     23  C   UNL     1      51.512  56.677  21.814  1.00  0.00    +0.036 C 
ATOM     24  O   UNL     1      52.265  54.528  21.176  1.00  0.00    -0.376 OA
ATOM     25  C   UNL     1      51.623  55.826  23.053  1.00  0.00    +0.031 C 
ATOM     26  C   UNL     1      51.655  54.428  22.471  1.00  0.00    +0.160 C 
ENDBRANCH  21  22
ENDBRANCH   4  21
TORSDOF 4
ENDMDL
MODEL 3
REMARK VINA RESULT:    -8.126      3.179      7.351
REMARK INTER + INTRA:         -10.827
REMARK INTER:                 -10.102
REMARK INTRA:                  -0.724
REMARK UNBOUND:                -0.800
REMARK SMILES O=C(NNC(=S)NC[C@H]1CCCO1)[C@H]1Cc2cc(Cl)ccc2O1
REMARK SMILES IDX 4 1 5 2 6 3 7 4 3 7 2 8 1 9 14 11 20 12 21 13 18 14 22 15
REMARK SMILES IDX 17 16 16 17 23 18 15 19 19 20 8 21 9 22 10 23 13 24 11 25
REMARK SMILES IDX 12 26
REMARK H PARENT 4 5 7 6 3 10
ROOT
ATOM      1  N   UNL     1      50.572  51.182  19.722  1.00  0.00    -0.274 N 
ATOM      2  C   UNL     1      51.225  49.997  19.493  1.00  0.00    +0.185 C 
ATOM      3  S   UNL     1      52.875  49.843  19.258  1.00  0.00    -0.039 S 
ATOM      4  N   UNL     1      50.466  48.867  19.502  1.00  0.00    -0.359 N 
ATOM      5  H   UNL     1      49.575  51.241  19.512  1.00  0.00    +0.190 HD
ATOM      6  H   UNL     1      50.975  48.030  19.243  1.00  0.00    +0.163 HD
ENDROOT
BRANCH   1   7
ATOM      7  N   UNL     1      51.249  52.405  19.531  1.00  0.00    -0.265 N 
ATOM      8  C   UNL     1      51.683  53.066  20.671  1.00  0.00    +0.279 C 
ATOM      9  O   UNL     1      51.685  52.520  21.774  1.00  0.00    -0.269 OA
ATOM     10  H   UNL     1      51.014  52.903  18.675  1.00  0.00    +0.191 HD
BRANCH   8  11
ATOM     11  C   UNL     1      52.172  54.500  20.407  1.00  0.00    +0.268 C 
ATOM     12  C   UNL     1      49.387  57.824  21.847  1.00  0.00    +0.024 A 
ATOM     13  C   UNL     1      50.449  57.013  22.257  1.00  0.00    +0.048 A 
ATOM     14  C   UNL     1      48.928  57.770  20.522  1.00  0.00    +0.041 A 
ATOM     15  C   UNL     1      51.014  56.167  21.325  1.00  0.00    +0.123 A 
ATOM     16  C   UNL     1      49.518  56.911  19.589  1.00  0.00    +0.028 A 
ATOM     17  C   UNL     1      50.564  56.111  20.017  1.00  0.00    -0.000 A 
ATOM     18  O   UNL     1      52.061  55.327  21.586  1.00  0.00    -0.480 OA
ATOM     19  C   UNL     1      51.392  55.152  19.252  1.00  0.00    +0.095 C 
ATOM     20 Cl   UNL     1      47.623  58.781  20.034  1.00  0.00    -0.084 Cl
ENDBRANCH   8  11
ENDBRANCH   1   7
BRANCH   4  21
ATOM     21  C   UNL     1      49.018  48.768  19.633  1.00  0.00    +0.147 C 
BRANCH  21  22
ATOM     22  C   UNL     1      48.286  48.898  18.297  1.00  0.00    +0.137 C 
ATOM     23  C   UNL     1      46.796  48.599  18.380  1.00  0.00    +0.036 C 
ATOM     24  O   UNL     1      48.392  50.245  17.802  1.00  0.00    -0.376 OA
ATOM     25  C   UNL     1      46.265  49.386  17.208  1.00  0.00    +0.031 C 
ATOM     26  C   UNL     1      47.124  50.631  17.251  1.00  0.00    +0.160 C 
ENDBRANCH  21  22
ENDBRANCH   4  21
TORSDOF 4
ENDMDL
MODEL 4
REMARK VINA RESULT:    -7.975      4.314      7.794
REMARK INTER + INTRA:         -10.640
REMARK INTER:                 -10.107
REMARK INTRA:                  -0.533
REMARK UNBOUND:                -0.800
REMARK SMILES O=C(NNC(=S)NC[C@H]1CCCO1)[C@H]1Cc2cc(Cl)ccc2O1
REMARK SMILES IDX 4 1 5 2 6 3 7 4 3 7 2 8 1 9 14 11 20 12 21 13 18 14 22 15
REMARK SMILES IDX 17 16 16 17 23 18 15 19 19 20 8 21 9 22 10 23 13 24 11 25
REMARK SMILES IDX 12 26
REMARK H PARENT 4 5 7 6 3 10
ROOT
ATOM      1  N   UNL     1      49.716  50.064  17.022  1.00  0.00    -0.274 N 
ATOM      2  C   UNL     1      49.614  49.773  15.685  1.00  0.00    +0.185 C 
ATOM      3  S   UNL     1      50.909  49.617  14.637  1.00  0.00    -0.039 S 
ATOM      4  N   UNL     1      48.360  49.556  15.198  1.00  0.00    -0.359 N 
ATOM      5  H   UNL     1      48.911  50.474  17.496  1.00  0.00    +0.190 HD
ATOM      6  H   UNL     1      48.328  49.431  14.193  1.00  0.00    +0.163 HD
ENDROOT
BRANCH   1   7
ATOM      7  N   UNL     1      50.949  50.496  17.554  1.00  0.00    -0.265 N 
ATOM      8  C   UNL     1      51.121  50.364  18.925  1.00  0.00    +0.279 C 
ATOM      9  O   UNL     1      50.343  49.704  19.613  1.00  0.00    -0.269 OA
ATOM     10  H   UNL     1      51.426  51.217  17.017  1.00  0.00    +0.191 HD
BRANCH   8  11
ATOM     11  C   UNL     1      52.365  51.088  19.465  1.00  0.00    +0.268 C 
ATOM     12  C   UNL     1      51.538  54.813  21.979  1.00  0.00    +0.024 A 
ATOM     13  C   UNL     1      51.699  53.428  22.071  1.00  0.00    +0.048 A 
ATOM     14  C   UNL     1      51.730  55.466  20.751  1.00  0.00    +0.041 A 
ATOM     15  C   UNL     1      52.042  52.739  20.926  1.00  0.00    +0.123 A 
ATOM     16  C   UNL     1      52.084  54.752  19.603  1.00  0.00    +0.028 A 
ATOM     17  C   UNL     1      52.232  53.380  19.713  1.00  0.00    -0.000 A 
ATOM     18  O   UNL     1      52.239  51.387  20.873  1.00  0.00    -0.480 OA
ATOM     19  C   UNL     1      52.635  52.388  18.690  1.00  0.00    +0.095 C 
ATOM     20 Cl   UNL     1      51.534  57.174  20.659  1.00  0.00    -0.084 Cl
ENDBRANCH   8  11
ENDBRANCH   1   7
BRANCH   4  21
ATOM     21  C   UNL     1      47.095  49.689  15.908  1.00  0.00    +0.147 C 
BRANCH  21  22
ATOM     22  C   UNL     1      46.694  48.419  16.659  1.00  0.00    +0.137 C 
ATOM     23  C   UNL     1      46.590  48.603  18.166  1.00  0.00    +0.036 C 
ATOM     24  O   UNL     1      45.396  47.974  16.224  1.00  0.00    -0.376 OA
ATOM     25  C   UNL     1      45.621  47.509  18.537  1.00  0.00    +0.031 C 
ATOM     26  C   UNL     1      44.654  47.538  17.373  1.00  0.00    +0.160 C 
ENDBRANCH  21  22
ENDBRANCH   4  21
TORSDOF 4
ENDMDL
MODEL 5
REMARK VINA RESULT:    -7.382      2.376      3.105
REMARK INTER + INTRA:          -9.909
REMARK INTER:                  -9.323
REMARK INTRA:                  -0.586
REMARK UNBOUND:                -0.800
REMARK SMILES O=C(NNC(=S)NC[C@H]1CCCO1)[C@H]1Cc2cc(Cl)ccc2O1
REMARK SMILES IDX 4 1 5 2 6 3 7 4 3 7 2 8 1 9 14 11 20 12 21 13 18 14 22 15
REMARK SMILES IDX 17 16 16 17 23 18 15 19 19 20 8 21 9 22 10 23 13 24 11 25
REMARK SMILES IDX 12 26
REMARK H PARENT 4 5 7 6 3 10
ROOT
ATOM      1  N   UNL     1      48.932  52.590  17.917  1.00  0.00    -0.274 N 
ATOM      2  C   UNL     1      50.026  53.249  18.416  1.00  0.00    +0.185 C 
ATOM      3  S   UNL     1      51.538  52.565  18.638  1.00  0.00    -0.039 S 
ATOM      4  N   UNL     1      49.867  54.569  18.708  1.00  0.00    -0.359 N 
ATOM      5  H   UNL     1      48.002  52.951  18.133  1.00  0.00    +0.190 HD
ATOM      6  H   UNL     1      50.675  54.991  19.154  1.00  0.00    +0.163 HD
ENDROOT
BRANCH   1   7
ATOM      7  N   UNL     1      48.960  51.186  17.781  1.00  0.00    -0.265 N 
ATOM      8  C   UNL     1      48.923  50.681  16.489  1.00  0.00    +0.279 C 
ATOM      9  O   UNL     1      49.085  51.405  15.507  1.00  0.00    -0.269 OA
ATOM     10  H   UNL     1      48.595  50.664  18.575  1.00  0.00    +0.191 HD
BRANCH   8  11
ATOM     11  C   UNL     1      48.692  49.162  16.424  1.00  0.00    +0.268 C 
ATOM     12  C   UNL     1      44.453  47.771  17.412  1.00  0.00    +0.024 A 
ATOM     13  C   UNL     1      45.264  48.189  16.353  1.00  0.00    +0.048 A 
ATOM     14  C   UNL     1      44.999  47.602  18.694  1.00  0.00    +0.041 A 
ATOM     15  C   UNL     1      46.596  48.430  16.614  1.00  0.00    +0.123 A 
ATOM     16  C   UNL     1      46.354  47.845  18.938  1.00  0.00    +0.028 A 
ATOM     17  C   UNL     1      47.138  48.265  17.877  1.00  0.00    -0.000 A 
ATOM     18  O   UNL     1      47.502  48.835  15.673  1.00  0.00    -0.480 OA
ATOM     19  C   UNL     1      48.589  48.552  17.832  1.00  0.00    +0.095 C 
ATOM     20 Cl   UNL     1      43.986  47.081  19.986  1.00  0.00    -0.084 Cl
ENDBRANCH   8  11
ENDBRANCH   1   7
BRANCH   4  21
ATOM     21  C   UNL     1      48.640  55.353  18.646  1.00  0.00    +0.147 C 
BRANCH  21  22
ATOM     22  C   UNL     1      48.627  56.351  17.488  1.00  0.00    +0.137 C 
ATOM     23  C   UNL     1      47.923  55.837  16.241  1.00  0.00    +0.036 C 
ATOM     24  O   UNL     1      47.926  57.548  17.873  1.00  0.00    -0.376 OA
ATOM     25  C   UNL     1      47.500  57.125  15.580  1.00  0.00    +0.031 C 
ATOM     26  C   UNL     1      47.112  57.976  16.771  1.00  0.00    +0.160 C 
ENDBRANCH  21  22
ENDBRANCH   4  21
TORSDOF 4
ENDMDL
