MODEL 1
REMARK VINA RESULT:   -10.100      0.000      0.000
REMARK INTER + INTRA:         -13.504
REMARK INTER:                 -13.052
REMARK INTRA:                  -0.452
REMARK UNBOUND:                -0.452
REMARK SMILES O=C(C[C@@H]1C[C@H]2CC[C@@H]1C2)NNC(=O)c1cc(-c2ccccc2)n[nH]1
REMARK SMILES IDX 13 1 14 2 12 3 15 5 17 6 16 7 24 8 25 9 18 11 21 12 20 13
REMARK SMILES IDX 22 14 19 15 23 16 11 17 2 18 1 19 3 21 4 22 5 23 9 24 6 25
REMARK SMILES IDX 8 26 10 27 7 28
REMARK H PARENT 12 4 25 10 11 20
ROOT
ATOM      1  C   UNL     1      49.354  51.857  17.244  1.00  0.00    +0.287 C 
ATOM      2  O   UNL     1      48.373  51.818  16.501  1.00  0.00    -0.266 OA
ATOM      3  N   UNL     1      50.195  50.763  17.367  1.00  0.00    -0.262 N 
ATOM      4  H   UNL     1      50.736  50.621  18.219  1.00  0.00    +0.191 HD
ENDROOT
BRANCH   1   5
ATOM      5  C   UNL     1      49.695  53.000  18.047  1.00  0.00    +0.125 A 
ATOM      6  C   UNL     1      49.684  54.861  19.311  1.00  0.00    +0.093 A 
ATOM      7  C   UNL     1      48.853  53.925  18.635  1.00  0.00    +0.064 A 
ATOM      8  N   UNL     1      50.975  54.531  19.133  1.00  0.00    -0.175 NA
ATOM      9  N   UNL     1      50.949  53.436  18.363  1.00  0.00    -0.272 N 
ATOM     10  H   UNL     1      51.839  53.044  18.076  1.00  0.00    +0.190 HD
BRANCH   6  11
ATOM     11  C   UNL     1      49.287  56.032  20.103  1.00  0.00    +0.002 A 
ATOM     12  C   UNL     1      48.547  58.276  21.637  1.00  0.00    +0.000 A 
ATOM     13  C   UNL     1      47.698  57.798  20.642  1.00  0.00    +0.001 A 
ATOM     14  C   UNL     1      49.764  57.642  21.872  1.00  0.00    +0.001 A 
ATOM     15  C   UNL     1      48.065  56.683  19.880  1.00  0.00    +0.010 A 
ATOM     16  C   UNL     1      50.131  56.529  21.111  1.00  0.00    +0.010 A 
ENDBRANCH   6  11
ENDBRANCH   1   5
BRANCH   3  17
ATOM     17  N   UNL     1      49.763  49.556  16.769  1.00  0.00    -0.267 N 
ATOM     18  C   UNL     1      49.349  48.562  17.632  1.00  0.00    +0.238 C 
ATOM     19  O   UNL     1      49.545  48.623  18.845  1.00  0.00    -0.273 OA
ATOM     20  H   UNL     1      49.321  49.666  15.855  1.00  0.00    +0.191 HD
BRANCH  18  21
ATOM     21  C   UNL     1      48.664  47.392  16.960  1.00  0.00    +0.105 C 
BRANCH  21  22
ATOM     22  C   UNL     1      47.160  47.250  17.216  1.00  0.00    +0.002 C 
ATOM     23  C   UNL     1      46.270  47.603  16.005  1.00  0.00    +0.008 C 
ATOM     24  C   UNL     1      46.565  48.137  18.337  1.00  0.00    -0.007 C 
ATOM     25  C   UNL     1      45.193  48.517  16.621  1.00  0.00    -0.011 C 
ATOM     26  C   UNL     1      45.244  47.488  18.798  1.00  0.00    +0.004 C 
ATOM     27  C   UNL     1      46.026  49.357  17.584  1.00  0.00    +0.007 C 
ATOM     28  C   UNL     1      44.318  47.701  17.589  1.00  0.00    +0.004 C 
ENDBRANCH  21  22
ENDBRANCH  18  21
ENDBRANCH   3  17
TORSDOF 5
ENDMDL
MODEL 2
REMARK VINA RESULT:    -9.390      1.313      1.903
REMARK INTER + INTRA:         -12.586
REMARK INTER:                 -12.001
REMARK INTRA:                  -0.585
REMARK UNBOUND:                -0.452
REMARK SMILES O=C(C[C@@H]1C[C@H]2CC[C@@H]1C2)NNC(=O)c1cc(-c2ccccc2)n[nH]1
REMARK SMILES IDX 13 1 14 2 12 3 15 5 17 6 16 7 24 8 25 9 18 11 21 12 20 13
REMARK SMILES IDX 22 14 19 15 23 16 11 17 2 18 1 19 3 21 4 22 5 23 9 24 6 25
REMARK SMILES IDX 8 26 10 27 7 28
REMARK H PARENT 12 4 25 10 11 20
ROOT
ATOM      1  C   UNL     1      50.566  51.296  18.766  1.00  0.00    +0.287 C 
ATOM      2  O   UNL     1      51.346  50.462  19.225  1.00  0.00    -0.266 OA
ATOM      3  N   UNL     1      49.573  50.924  17.874  1.00  0.00    -0.262 N 
ATOM      4  H   UNL     1      49.203  51.597  17.204  1.00  0.00    +0.191 HD
ENDROOT
BRANCH   1   5
ATOM      5  C   UNL     1      50.624  52.696  19.087  1.00  0.00    +0.125 A 
ATOM      6  C   UNL     1      50.223  54.788  19.810  1.00  0.00    +0.093 A 
ATOM      7  C   UNL     1      49.697  53.468  19.762  1.00  0.00    +0.064 A 
ATOM      8  N   UNL     1      51.411  54.826  19.181  1.00  0.00    -0.175 NA
ATOM      9  N   UNL     1      51.611  53.576  18.746  1.00  0.00    -0.272 N 
ATOM     10  H   UNL     1      52.449  53.397  18.203  1.00  0.00    +0.190 HD
BRANCH   6  11
ATOM     11  C   UNL     1      49.635  55.986  20.425  1.00  0.00    +0.002 A 
ATOM     12  C   UNL     1      48.487  58.279  21.588  1.00  0.00    +0.000 A 
ATOM     13  C   UNL     1      49.766  57.873  21.959  1.00  0.00    +0.001 A 
ATOM     14  C   UNL     1      47.775  57.549  20.641  1.00  0.00    +0.001 A 
ATOM     15  C   UNL     1      50.337  56.734  21.381  1.00  0.00    +0.010 A 
ATOM     16  C   UNL     1      48.345  56.410  20.064  1.00  0.00    +0.010 A 
ENDBRANCH   6  11
ENDBRANCH   1   5
BRANCH   3  17
ATOM     17  N   UNL     1      49.633  49.604  17.369  1.00  0.00    -0.267 N 
ATOM     18  C   UNL     1      48.680  48.725  17.843  1.00  0.00    +0.238 C 
ATOM     19  O   UNL     1      47.961  48.995  18.804  1.00  0.00    -0.273 OA
ATOM     20  H   UNL     1      49.976  49.528  16.410  1.00  0.00    +0.191 HD
BRANCH  18  21
ATOM     21  C   UNL     1      48.617  47.407  17.103  1.00  0.00    +0.105 C 
BRANCH  21  22
ATOM     22  C   UNL     1      47.464  47.244  16.108  1.00  0.00    +0.002 C 
ATOM     23  C   UNL     1      46.920  48.572  15.536  1.00  0.00    +0.008 C 
ATOM     24  C   UNL     1      46.181  46.562  16.645  1.00  0.00    -0.007 C 
ATOM     25  C   UNL     1      45.395  48.410  15.676  1.00  0.00    -0.011 C 
ATOM     26  C   UNL     1      45.399  46.014  15.434  1.00  0.00    +0.004 C 
ATOM     27  C   UNL     1      45.286  47.740  17.042  1.00  0.00    +0.007 C 
ATOM     28  C   UNL     1      44.907  47.292  14.736  1.00  0.00    +0.004 C 
ENDBRANCH  21  22
ENDBRANCH  18  21
ENDBRANCH   3  17
TORSDOF 5
ENDMDL
MODEL 3
REMARK VINA RESULT:    -8.872      2.032      8.965
REMARK INTER + INTRA:         -11.917
REMARK INTER:                 -11.334
REMARK INTRA:                  -0.584
REMARK UNBOUND:                -0.452
REMARK SMILES O=C(C[C@@H]1C[C@H]2CC[C@@H]1C2)NNC(=O)c1cc(-c2ccccc2)n[nH]1
REMARK SMILES IDX 13 1 14 2 12 3 15 5 17 6 16 7 24 8 25 9 18 11 21 12 20 13
REMARK SMILES IDX 22 14 19 15 23 16 11 17 2 18 1 19 3 21 4 22 5 23 9 24 6 25
REMARK SMILES IDX 8 26 10 27 7 28
REMARK H PARENT 12 4 25 10 11 20
ROOT
ATOM      1  C   UNL     1      49.833  50.328  18.317  1.00  0.00    +0.287 C 
ATOM      2  O   UNL     1      50.443  50.064  19.353  1.00  0.00    -0.266 OA
ATOM      3  N   UNL     1      50.246  51.363  17.493  1.00  0.00    -0.262 N 
ATOM      4  H   UNL     1      49.577  51.842  16.891  1.00  0.00    +0.191 HD
ENDROOT
BRANCH   1   5
ATOM      5  C   UNL     1      48.656  49.620  17.889  1.00  0.00    +0.125 A 
ATOM      6  C   UNL     1      46.965  48.702  16.725  1.00  0.00    +0.093 A 
ATOM      7  C   UNL     1      48.145  49.486  16.612  1.00  0.00    +0.064 A 
ATOM      8  N   UNL     1      46.756  48.382  18.014  1.00  0.00    -0.175 NA
ATOM      9  N   UNL     1      47.763  48.959  18.681  1.00  0.00    -0.272 N 
ATOM     10  H   UNL     1      47.769  48.869  19.691  1.00  0.00    +0.190 HD
BRANCH   6  11
ATOM     11  C   UNL     1      46.054  48.260  15.661  1.00  0.00    +0.002 A 
ATOM     12  C   UNL     1      44.325  47.420  13.603  1.00  0.00    +0.000 A 
ATOM     13  C   UNL     1      43.907  47.371  14.930  1.00  0.00    +0.001 A 
ATOM     14  C   UNL     1      45.600  47.884  13.294  1.00  0.00    +0.001 A 
ATOM     15  C   UNL     1      44.765  47.789  15.953  1.00  0.00    +0.010 A 
ATOM     16  C   UNL     1      46.458  48.300  14.316  1.00  0.00    +0.010 A 
ENDBRANCH   6  11
ENDBRANCH   1   5
BRANCH   3  17
ATOM     17  N   UNL     1      51.257  52.214  17.999  1.00  0.00    -0.267 N 
ATOM     18  C   UNL     1      50.843  53.452  18.448  1.00  0.00    +0.238 C 
ATOM     19  O   UNL     1      49.713  53.886  18.227  1.00  0.00    -0.273 OA
ATOM     20  H   UNL     1      52.036  51.732  18.450  1.00  0.00    +0.191 HD
BRANCH  18  21
ATOM     21  C   UNL     1      51.897  54.230  19.205  1.00  0.00    +0.105 C 
BRANCH  21  22
ATOM     22  C   UNL     1      51.444  55.551  19.832  1.00  0.00    +0.002 C 
ATOM     23  C   UNL     1      52.597  56.484  20.263  1.00  0.00    +0.008 C 
ATOM     24  C   UNL     1      50.600  55.446  21.126  1.00  0.00    -0.007 C 
ATOM     25  C   UNL     1      52.184  56.913  21.683  1.00  0.00    -0.011 C 
ATOM     26  C   UNL     1      49.813  56.764  21.283  1.00  0.00    +0.004 C 
ATOM     27  C   UNL     1      51.634  55.606  22.245  1.00  0.00    +0.007 C 
ATOM     28  C   UNL     1      50.916  57.784  21.610  1.00  0.00    +0.004 C 
ENDBRANCH  21  22
ENDBRANCH  18  21
ENDBRANCH   3  17
TORSDOF 5
ENDMDL
MODEL 4
REMARK VINA RESULT:    -8.629      4.573      6.647
REMARK INTER + INTRA:         -11.603
REMARK INTER:                 -10.966
REMARK INTRA:                  -0.637
REMARK UNBOUND:                -0.452
REMARK SMILES O=C(C[C@@H]1C[C@H]2CC[C@@H]1C2)NNC(=O)c1cc(-c2ccccc2)n[nH]1
REMARK SMILES IDX 13 1 14 2 12 3 15 5 17 6 16 7 24 8 25 9 18 11 21 12 20 13
REMARK SMILES IDX 22 14 19 15 23 16 11 17 2 18 1 19 3 21 4 22 5 23 9 24 6 25
REMARK SMILES IDX 8 26 10 27 7 28
REMARK H PARENT 12 4 25 10 11 20
ROOT
ATOM      1  C   UNL     1      48.820  56.382  18.902  1.00  0.00    +0.287 C 
ATOM      2  O   UNL     1      49.158  55.532  18.079  1.00  0.00    -0.266 OA
ATOM      3  N   UNL     1      49.155  56.248  20.240  1.00  0.00    -0.262 N 
ATOM      4  H   UNL     1      48.582  56.683  20.962  1.00  0.00    +0.191 HD
ENDROOT
BRANCH   1   5
ATOM      5  C   UNL     1      48.049  57.549  18.566  1.00  0.00    +0.125 A 
ATOM      6  C   UNL     1      46.900  59.482  18.574  1.00  0.00    +0.093 A 
ATOM      7  C   UNL     1      47.643  58.584  19.387  1.00  0.00    +0.064 A 
ATOM      8  N   UNL     1      46.841  59.012  17.316  1.00  0.00    -0.175 NA
ATOM      9  N   UNL     1      47.513  57.855  17.348  1.00  0.00    -0.272 N 
ATOM     10  H   UNL     1      47.554  57.313  16.492  1.00  0.00    +0.190 HD
BRANCH   6  11
ATOM     11  C   UNL     1      46.260  60.748  18.958  1.00  0.00    +0.002 A 
ATOM     12  C   UNL     1      45.010  63.165  19.683  1.00  0.00    +0.000 A 
ATOM     13  C   UNL     1      46.380  63.002  19.872  1.00  0.00    +0.001 A 
ATOM     14  C   UNL     1      44.258  62.129  19.136  1.00  0.00    +0.001 A 
ATOM     15  C   UNL     1      47.001  61.802  19.511  1.00  0.00    +0.010 A 
ATOM     16  C   UNL     1      44.879  60.930  18.776  1.00  0.00    +0.010 A 
ENDBRANCH   6  11
ENDBRANCH   1   5
BRANCH   3  17
ATOM     17  N   UNL     1      49.713  55.010  20.636  1.00  0.00    -0.267 N 
ATOM     18  C   UNL     1      51.013  55.046  21.099  1.00  0.00    +0.238 C 
ATOM     19  O   UNL     1      51.725  56.041  20.974  1.00  0.00    -0.273 OA
ATOM     20  H   UNL     1      49.043  54.343  21.023  1.00  0.00    +0.191 HD
BRANCH  18  21
ATOM     21  C   UNL     1      51.487  53.761  21.742  1.00  0.00    +0.105 C 
BRANCH  21  22
ATOM     22  C   UNL     1      52.004  52.679  20.791  1.00  0.00    +0.002 C 
ATOM     23  C   UNL     1      52.371  53.189  19.380  1.00  0.00    +0.008 C 
ATOM     24  C   UNL     1      51.034  51.512  20.481  1.00  0.00    -0.007 C 
ATOM     25  C   UNL     1      51.695  52.160  18.453  1.00  0.00    -0.011 C 
ATOM     26  C   UNL     1      51.878  50.317  19.992  1.00  0.00    +0.004 C 
ATOM     27  C   UNL     1      50.367  51.935  19.169  1.00  0.00    +0.007 C 
ATOM     28  C   UNL     1      52.379  50.791  18.618  1.00  0.00    +0.004 C 
ENDBRANCH  21  22
ENDBRANCH  18  21
ENDBRANCH   3  17
TORSDOF 5
ENDMDL
