MODEL 1
REMARK VINA RESULT:    -9.206      0.000      0.000
REMARK INTER + INTRA:         -11.939
REMARK INTER:                 -11.359
REMARK INTRA:                  -0.581
REMARK UNBOUND:                -0.581
REMARK SMILES C[C@H]1C[C@@H]1c1ccc(/C=C/C(=O)Nc2ccc3[nH]c(=O)[nH]c3c2)o1
REMARK SMILES IDX 9 1 10 2 8 3 5 4 6 5 24 6 7 7 4 8 2 9 3 10 1 11 11 12 12 13
REMARK SMILES IDX 13 14 14 16 15 17 23 18 16 19 22 20 17 21 21 22 18 23 19 24
REMARK SMILES IDX 20 25
REMARK H PARENT 13 15 21 26 18 27
ROOT
ATOM      1  C   UNL     1      48.500  52.111  17.276  1.00  0.00    +0.053 C 
ATOM      2  C   UNL     1      47.836  53.258  17.476  1.00  0.00    +0.075 C 
ENDROOT
BRANCH   1   3
ATOM      3  C   UNL     1      47.812  50.946  16.840  1.00  0.00    +0.127 A 
ATOM      4  C   UNL     1      46.359  49.269  16.843  1.00  0.00    +0.108 A 
ATOM      5  C   UNL     1      47.076  49.141  15.679  1.00  0.00    +0.046 A 
ATOM      6  O   UNL     1      46.789  50.351  17.539  1.00  0.00    -0.461 OA
ATOM      7  C   UNL     1      48.016  50.199  15.686  1.00  0.00    +0.050 A 
BRANCH   4   8
ATOM      8  C   UNL     1      45.202  48.349  17.307  1.00  0.00    +0.059 C 
ATOM      9  C   UNL     1      45.487  47.354  18.408  1.00  0.00    -0.003 C 
ATOM     10  C   UNL     1      45.243  46.873  17.001  1.00  0.00    +0.016 C 
ATOM     11  C   UNL     1      44.475  47.105  19.477  1.00  0.00    +0.008 C 
ENDBRANCH   4   8
ENDBRANCH   1   3
BRANCH   2  12
ATOM     12  C   UNL     1      48.564  54.480  17.886  1.00  0.00    +0.248 C 
ATOM     13  O   UNL     1      48.617  55.431  17.119  1.00  0.00    -0.270 OA
ATOM     14  N   UNL     1      49.058  54.395  19.170  1.00  0.00    -0.322 N 
ATOM     15  H   UNL     1      48.804  53.570  19.697  1.00  0.00    +0.170 HD
BRANCH  14  16
ATOM     16  C   UNL     1      49.802  55.375  19.860  1.00  0.00    +0.043 A 
ATOM     17  C   UNL     1      49.065  56.287  20.658  1.00  0.00    +0.028 A 
ATOM     18  C   UNL     1      51.198  55.470  19.793  1.00  0.00    +0.054 A 
ATOM     19  C   UNL     1      49.694  57.307  21.385  1.00  0.00    +0.030 A 
ATOM     20  C   UNL     1      51.792  56.476  20.520  1.00  0.00    +0.068 A 
ATOM     21  C   UNL     1      51.061  57.372  21.292  1.00  0.00    +0.066 A 
ATOM     22  N   UNL     1      53.138  56.804  20.646  1.00  0.00    -0.306 N 
ATOM     23  N   UNL     1      51.954  58.253  21.889  1.00  0.00    -0.306 N 
ATOM     24  C   UNL     1      53.255  57.909  21.501  1.00  0.00    +0.323 C 
ATOM     25  O   UNL     1      54.283  58.462  21.843  1.00  0.00    -0.248 OA
ATOM     26  H   UNL     1      53.920  56.338  20.219  1.00  0.00    +0.171 HD
ATOM     27  H   UNL     1      51.739  59.018  22.507  1.00  0.00    +0.171 HD
ENDBRANCH  14  16
ENDBRANCH   2  12
TORSDOF 4
ENDMDL
MODEL 2
REMARK VINA RESULT:    -8.532      1.644      2.034
REMARK INTER + INTRA:         -11.107
REMARK INTER:                 -10.585
REMARK INTRA:                  -0.522
REMARK UNBOUND:                -0.581
REMARK SMILES C[C@H]1C[C@@H]1c1ccc(/C=C/C(=O)Nc2ccc3[nH]c(=O)[nH]c3c2)o1
REMARK SMILES IDX 9 1 10 2 8 3 5 4 6 5 24 6 7 7 4 8 2 9 3 10 1 11 11 12 12 13
REMARK SMILES IDX 13 14 14 16 15 17 23 18 16 19 22 20 17 21 21 22 18 23 19 24
REMARK SMILES IDX 20 25
REMARK H PARENT 13 15 21 26 18 27
ROOT
ATOM      1  C   UNL     1      47.933  51.713  16.991  1.00  0.00    +0.053 C 
ATOM      2  C   UNL     1      49.193  52.083  17.257  1.00  0.00    +0.075 C 
ENDROOT
BRANCH   1   3
ATOM      3  C   UNL     1      47.670  50.549  16.220  1.00  0.00    +0.127 A 
ATOM      4  C   UNL     1      46.727  48.638  15.598  1.00  0.00    +0.108 A 
ATOM      5  C   UNL     1      47.669  48.919  14.641  1.00  0.00    +0.046 A 
ATOM      6  O   UNL     1      46.716  49.612  16.542  1.00  0.00    -0.461 OA
ATOM      7  C   UNL     1      48.284  50.128  15.047  1.00  0.00    +0.050 A 
BRANCH   4   8
ATOM      8  C   UNL     1      45.777  47.415  15.612  1.00  0.00    +0.059 C 
ATOM      9  C   UNL     1      44.466  47.528  14.869  1.00  0.00    -0.003 C 
ATOM     10  C   UNL     1      44.478  47.478  16.375  1.00  0.00    +0.016 C 
ATOM     11  C   UNL     1      43.947  46.373  14.079  1.00  0.00    +0.008 C 
ENDBRANCH   4   8
ENDBRANCH   1   3
BRANCH   2  12
ATOM     12  C   UNL     1      49.460  53.271  18.099  1.00  0.00    +0.248 C 
ATOM     13  O   UNL     1      48.684  54.215  18.065  1.00  0.00    -0.270 OA
ATOM     14  N   UNL     1      50.577  53.116  18.891  1.00  0.00    -0.322 N 
ATOM     15  H   UNL     1      51.023  52.209  18.870  1.00  0.00    +0.170 HD
BRANCH  14  16
ATOM     16  C   UNL     1      51.112  54.056  19.797  1.00  0.00    +0.043 A 
ATOM     17  C   UNL     1      50.865  53.822  21.175  1.00  0.00    +0.028 A 
ATOM     18  C   UNL     1      51.860  55.171  19.398  1.00  0.00    +0.054 A 
ATOM     19  C   UNL     1      51.341  54.690  22.167  1.00  0.00    +0.030 A 
ATOM     20  C   UNL     1      52.321  56.004  20.391  1.00  0.00    +0.068 A 
ATOM     21  C   UNL     1      52.066  55.772  21.738  1.00  0.00    +0.066 A 
ATOM     22  N   UNL     1      53.081  57.165  20.295  1.00  0.00    -0.306 N 
ATOM     23  N   UNL     1      52.664  56.790  22.471  1.00  0.00    -0.306 N 
ATOM     24  C   UNL     1      53.307  57.665  21.585  1.00  0.00    +0.323 C 
ATOM     25  O   UNL     1      53.939  58.662  21.882  1.00  0.00    -0.248 OA
ATOM     26  H   UNL     1      53.435  57.592  19.456  1.00  0.00    +0.171 HD
ATOM     27  H   UNL     1      52.661  56.909  23.470  1.00  0.00    +0.171 HD
ENDBRANCH  14  16
ENDBRANCH   2  12
TORSDOF 4
ENDMDL
MODEL 3
REMARK VINA RESULT:    -8.342      5.560      9.964
REMARK INTER + INTRA:         -10.874
REMARK INTER:                 -10.760
REMARK INTRA:                  -0.114
REMARK UNBOUND:                -0.581
REMARK SMILES C[C@H]1C[C@@H]1c1ccc(/C=C/C(=O)Nc2ccc3[nH]c(=O)[nH]c3c2)o1
REMARK SMILES IDX 9 1 10 2 8 3 5 4 6 5 24 6 7 7 4 8 2 9 3 10 1 11 11 12 12 13
REMARK SMILES IDX 13 14 14 16 15 17 23 18 16 19 22 20 17 21 21 22 18 23 19 24
REMARK SMILES IDX 20 25
REMARK H PARENT 13 15 21 26 18 27
ROOT
ATOM      1  C   UNL     1      47.678  59.846  18.694  1.00  0.00    +0.053 C 
ATOM      2  C   UNL     1      47.615  59.070  19.785  1.00  0.00    +0.075 C 
ENDROOT
BRANCH   1   3
ATOM      3  C   UNL     1      47.102  61.146  18.698  1.00  0.00    +0.127 A 
ATOM      4  C   UNL     1      46.283  63.057  17.924  1.00  0.00    +0.108 A 
ATOM      5  C   UNL     1      46.179  63.132  19.290  1.00  0.00    +0.046 A 
ATOM      6  O   UNL     1      46.828  61.869  17.561  1.00  0.00    -0.461 OA
ATOM      7  C   UNL     1      46.719  61.921  19.786  1.00  0.00    +0.050 A 
BRANCH   4   8
ATOM      8  C   UNL     1      45.826  64.139  16.914  1.00  0.00    +0.059 C 
ATOM      9  C   UNL     1      46.868  64.736  15.997  1.00  0.00    -0.003 C 
ATOM     10  C   UNL     1      46.262  65.571  17.095  1.00  0.00    +0.016 C 
ATOM     11  C   UNL     1      46.542  65.016  14.567  1.00  0.00    +0.008 C 
ENDBRANCH   4   8
ENDBRANCH   1   3
BRANCH   2  12
ATOM     12  C   UNL     1      48.255  57.736  19.790  1.00  0.00    +0.248 C 
ATOM     13  O   UNL     1      48.070  56.979  18.848  1.00  0.00    -0.270 OA
ATOM     14  N   UNL     1      49.065  57.543  20.889  1.00  0.00    -0.322 N 
ATOM     15  H   UNL     1      49.190  58.337  21.502  1.00  0.00    +0.170 HD
BRANCH  14  16
ATOM     16  C   UNL     1      49.809  56.386  21.201  1.00  0.00    +0.043 A 
ATOM     17  C   UNL     1      50.812  56.526  22.196  1.00  0.00    +0.028 A 
ATOM     18  C   UNL     1      49.595  55.144  20.590  1.00  0.00    +0.054 A 
ATOM     19  C   UNL     1      51.618  55.448  22.587  1.00  0.00    +0.030 A 
ATOM     20  C   UNL     1      50.396  54.101  20.995  1.00  0.00    +0.068 A 
ATOM     21  C   UNL     1      51.382  54.249  21.964  1.00  0.00    +0.066 A 
ATOM     22  N   UNL     1      50.408  52.775  20.574  1.00  0.00    -0.306 N 
ATOM     23  N   UNL     1      52.004  53.018  22.137  1.00  0.00    -0.306 N 
ATOM     24  C   UNL     1      51.404  52.086  21.280  1.00  0.00    +0.323 C 
ATOM     25  O   UNL     1      51.692  50.908  21.175  1.00  0.00    -0.248 OA
ATOM     26  H   UNL     1      49.807  52.350  19.889  1.00  0.00    +0.171 HD
ATOM     27  H   UNL     1      52.758  52.796  22.765  1.00  0.00    +0.171 HD
ENDBRANCH  14  16
ENDBRANCH   2  12
TORSDOF 4
ENDMDL
MODEL 4
REMARK VINA RESULT:    -8.164      3.703     10.197
REMARK INTER + INTRA:         -10.653
REMARK INTER:                 -10.058
REMARK INTRA:                  -0.596
REMARK UNBOUND:                -0.581
REMARK SMILES C[C@H]1C[C@@H]1c1ccc(/C=C/C(=O)Nc2ccc3[nH]c(=O)[nH]c3c2)o1
REMARK SMILES IDX 9 1 10 2 8 3 5 4 6 5 24 6 7 7 4 8 2 9 3 10 1 11 11 12 12 13
REMARK SMILES IDX 13 14 14 16 15 17 23 18 16 19 22 20 17 21 21 22 18 23 19 24
REMARK SMILES IDX 20 25
REMARK H PARENT 13 15 21 26 18 27
ROOT
ATOM      1  C   UNL     1      48.854  52.351  18.165  1.00  0.00    +0.053 C 
ATOM      2  C   UNL     1      49.388  51.137  18.353  1.00  0.00    +0.075 C 
ENDROOT
BRANCH   1   3
ATOM      3  C   UNL     1      49.545  53.518  18.592  1.00  0.00    +0.127 A 
ATOM      4  C   UNL     1      49.873  55.593  19.307  1.00  0.00    +0.108 A 
ATOM      5  C   UNL     1      51.121  55.032  19.201  1.00  0.00    +0.046 A 
ATOM      6  O   UNL     1      48.924  54.691  18.952  1.00  0.00    -0.461 OA
ATOM      7  C   UNL     1      50.914  53.715  18.727  1.00  0.00    +0.050 A 
BRANCH   4   8
ATOM      8  C   UNL     1      49.556  57.030  19.790  1.00  0.00    +0.059 C 
ATOM      9  C   UNL     1      48.752  57.190  21.059  1.00  0.00    -0.003 C 
ATOM     10  C   UNL     1      48.143  57.552  19.729  1.00  0.00    +0.016 C 
ATOM     11  C   UNL     1      49.103  58.256  22.043  1.00  0.00    +0.008 C 
ENDBRANCH   4   8
ENDBRANCH   1   3
BRANCH   2  12
ATOM     12  C   UNL     1      48.686  49.929  17.866  1.00  0.00    +0.248 C 
ATOM     13  O   UNL     1      49.293  48.869  17.800  1.00  0.00    -0.270 OA
ATOM     14  N   UNL     1      47.355  50.165  17.595  1.00  0.00    -0.322 N 
ATOM     15  H   UNL     1      47.003  51.083  17.831  1.00  0.00    +0.170 HD
BRANCH  14  16
ATOM     16  C   UNL     1      46.410  49.237  17.111  1.00  0.00    +0.043 A 
ATOM     17  C   UNL     1      45.593  48.597  18.079  1.00  0.00    +0.028 A 
ATOM     18  C   UNL     1      46.250  48.940  15.751  1.00  0.00    +0.054 A 
ATOM     19  C   UNL     1      44.623  47.653  17.717  1.00  0.00    +0.030 A 
ATOM     20  C   UNL     1      45.287  48.014  15.421  1.00  0.00    +0.068 A 
ATOM     21  C   UNL     1      44.497  47.385  16.378  1.00  0.00    +0.066 A 
ATOM     22  N   UNL     1      44.908  47.533  14.173  1.00  0.00    -0.306 N 
ATOM     23  N   UNL     1      43.636  46.516  15.720  1.00  0.00    -0.306 N 
ATOM     24  C   UNL     1      43.876  46.600  14.342  1.00  0.00    +0.323 C 
ATOM     25  O   UNL     1      43.296  45.984  13.467  1.00  0.00    -0.248 OA
ATOM     26  H   UNL     1      45.283  47.800  13.279  1.00  0.00    +0.171 HD
ATOM     27  H   UNL     1      42.941  45.914  16.131  1.00  0.00    +0.171 HD
ENDBRANCH  14  16
ENDBRANCH   2  12
TORSDOF 4
ENDMDL
MODEL 5
REMARK VINA RESULT:    -7.943      3.126     10.028
REMARK INTER + INTRA:         -10.381
REMARK INTER:                 -10.005
REMARK INTRA:                  -0.376
REMARK UNBOUND:                -0.581
REMARK SMILES C[C@H]1C[C@@H]1c1ccc(/C=C/C(=O)Nc2ccc3[nH]c(=O)[nH]c3c2)o1
REMARK SMILES IDX 9 1 10 2 8 3 5 4 6 5 24 6 7 7 4 8 2 9 3 10 1 11 11 12 12 13
REMARK SMILES IDX 13 14 14 16 15 17 23 18 16 19 22 20 17 21 21 22 18 23 19 24
REMARK SMILES IDX 20 25
REMARK H PARENT 13 15 21 26 18 27
ROOT
ATOM      1  C   UNL     1      49.010  54.085  19.171  1.00  0.00    +0.053 C 
ATOM      2  C   UNL     1      49.966  53.160  19.011  1.00  0.00    +0.075 C 
ENDROOT
BRANCH   1   3
ATOM      3  C   UNL     1      49.309  55.334  19.780  1.00  0.00    +0.127 A 
ATOM      4  C   UNL     1      50.501  56.963  20.702  1.00  0.00    +0.108 A 
ATOM      5  C   UNL     1      49.206  57.415  20.679  1.00  0.00    +0.046 A 
ATOM      6  O   UNL     1      50.573  55.722  20.159  1.00  0.00    -0.461 OA
ATOM      7  C   UNL     1      48.442  56.369  20.108  1.00  0.00    +0.050 A 
BRANCH   4   8
ATOM      8  C   UNL     1      51.730  57.743  21.233  1.00  0.00    +0.059 C 
ATOM      9  C   UNL     1      53.103  57.258  20.831  1.00  0.00    -0.003 C 
ATOM     10  C   UNL     1      52.639  57.111  22.256  1.00  0.00    +0.016 C 
ATOM     11  C   UNL     1      54.175  58.238  20.483  1.00  0.00    +0.008 C 
ENDBRANCH   4   8
ENDBRANCH   1   3
BRANCH   2  12
ATOM     12  C   UNL     1      49.660  51.879  18.335  1.00  0.00    +0.248 C 
ATOM     13  O   UNL     1      50.398  50.920  18.507  1.00  0.00    -0.270 OA
ATOM     14  N   UNL     1      48.487  51.930  17.614  1.00  0.00    -0.322 N 
ATOM     15  H   UNL     1      47.945  52.781  17.693  1.00  0.00    +0.170 HD
BRANCH  14  16
ATOM     16  C   UNL     1      47.914  50.892  16.850  1.00  0.00    +0.043 A 
ATOM     17  C   UNL     1      48.549  50.584  15.619  1.00  0.00    +0.028 A 
ATOM     18  C   UNL     1      46.783  50.172  17.255  1.00  0.00    +0.054 A 
ATOM     19  C   UNL     1      48.069  49.576  14.773  1.00  0.00    +0.030 A 
ATOM     20  C   UNL     1      46.333  49.184  16.409  1.00  0.00    +0.068 A 
ATOM     21  C   UNL     1      46.957  48.896  15.200  1.00  0.00    +0.066 A 
ATOM     22  N   UNL     1      45.254  48.319  16.549  1.00  0.00    -0.306 N 
ATOM     23  N   UNL     1      46.260  47.858  14.594  1.00  0.00    -0.306 N 
ATOM     24  C   UNL     1      45.197  47.482  15.425  1.00  0.00    +0.323 C 
ATOM     25  O   UNL     1      44.387  46.599  15.211  1.00  0.00    -0.248 OA
ATOM     26  H   UNL     1      44.610  48.269  17.320  1.00  0.00    +0.171 HD
ATOM     27  H   UNL     1      46.459  47.420  13.709  1.00  0.00    +0.171 HD
ENDBRANCH  14  16
ENDBRANCH   2  12
TORSDOF 4
ENDMDL
