MODEL 1
REMARK VINA RESULT:    -7.775      0.000      0.000
REMARK INTER + INTRA:         -10.120
REMARK INTER:                 -10.047
REMARK INTRA:                  -0.073
REMARK UNBOUND:                -0.073
REMARK SMILES Cc1cccc(C)c1OCC(=O)NNC(=S)NC1CC1
REMARK SMILES IDX 10 1 9 2 8 3 2 4 3 5 4 6 6 7 5 8 1 9 7 10 11 11 12 12 13 13
REMARK SMILES IDX 14 15 15 16 16 17 17 18 18 21 19 22 20 23
REMARK H PARENT 13 14 14 19 17 20
ROOT
ATOM      1  C   UNL     1      52.103  54.246  20.144  1.00  0.00    +0.331 C 
ENDROOT
BRANCH   1   2
ATOM      2  O   UNL     1      50.807  53.999  20.698  1.00  0.00    -0.483 OA
BRANCH   2   3
ATOM      3  C   UNL     1      50.083  55.164  20.759  1.00  0.00    +0.125 A 
ATOM      4  C   UNL     1      50.484  56.161  21.665  1.00  0.00    -0.009 A 
ATOM      5  C   UNL     1      49.735  57.342  21.739  1.00  0.00    +0.007 A 
ATOM      6  C   UNL     1      48.636  57.536  20.904  1.00  0.00    +0.001 A 
ATOM      7  C   UNL     1      49.011  55.368  19.876  1.00  0.00    -0.009 A 
ATOM      8  C   UNL     1      48.278  56.558  19.976  1.00  0.00    +0.007 A 
ATOM      9  C   UNL     1      51.671  55.970  22.565  1.00  0.00    +0.048 C 
ATOM     10  C   UNL     1      48.608  54.339  18.859  1.00  0.00    +0.048 C 
ENDBRANCH   2   3
ENDBRANCH   1   2
BRANCH   1  11
ATOM     11  C   UNL     1      52.382  53.298  18.983  1.00  0.00    +0.276 C 
ATOM     12  O   UNL     1      53.363  53.414  18.247  1.00  0.00    -0.269 OA
ATOM     13  N   UNL     1      51.454  52.283  18.832  1.00  0.00    -0.265 N 
ATOM     14  H   UNL     1      50.537  52.400  19.268  1.00  0.00    +0.191 HD
BRANCH  13  15
ATOM     15  N   UNL     1      51.495  51.550  17.628  1.00  0.00    -0.274 N 
ATOM     16  C   UNL     1      50.407  50.767  17.255  1.00  0.00    +0.185 C 
ATOM     17  S   UNL     1      49.120  50.408  18.267  1.00  0.00    -0.039 S 
ATOM     18  N   UNL     1      50.547  50.312  15.952  1.00  0.00    -0.359 N 
ATOM     19  H   UNL     1      52.010  52.030  16.890  1.00  0.00    +0.190 HD
ATOM     20  H   UNL     1      51.450  50.449  15.516  1.00  0.00    +0.163 HD
BRANCH  18  21
ATOM     21  C   UNL     1      49.629  49.455  15.265  1.00  0.00    +0.081 C 
ATOM     22  C   UNL     1      49.426  49.605  13.781  1.00  0.00    +0.027 C 
ATOM     23  C   UNL     1      48.329  49.989  14.730  1.00  0.00    +0.027 C 
ENDBRANCH  18  21
ENDBRANCH  13  15
ENDBRANCH   1  11
TORSDOF 5
ENDMDL
MODEL 2
REMARK VINA RESULT:    -7.763      0.159      1.946
REMARK INTER + INTRA:         -10.104
REMARK INTER:                  -9.997
REMARK INTRA:                  -0.107
REMARK UNBOUND:                -0.073
REMARK SMILES Cc1cccc(C)c1OCC(=O)NNC(=S)NC1CC1
REMARK SMILES IDX 10 1 9 2 8 3 2 4 3 5 4 6 6 7 5 8 1 9 7 10 11 11 12 12 13 13
REMARK SMILES IDX 14 15 15 16 16 17 17 18 18 21 19 22 20 23
REMARK H PARENT 13 14 14 19 17 20
ROOT
ATOM      1  C   UNL     1      52.078  54.218  20.186  1.00  0.00    +0.331 C 
ENDROOT
BRANCH   1   2
ATOM      2  O   UNL     1      50.762  54.019  20.714  1.00  0.00    -0.483 OA
BRANCH   2   3
ATOM      3  C   UNL     1      50.095  55.216  20.800  1.00  0.00    +0.125 A 
ATOM      4  C   UNL     1      48.984  55.430  19.967  1.00  0.00    -0.009 A 
ATOM      5  C   UNL     1      48.315  56.658  20.042  1.00  0.00    +0.007 A 
ATOM      6  C   UNL     1      48.724  57.632  20.952  1.00  0.00    +0.001 A 
ATOM      7  C   UNL     1      50.485  56.166  21.757  1.00  0.00    -0.009 A 
ATOM      8  C   UNL     1      49.799  57.387  21.807  1.00  0.00    +0.007 A 
ATOM      9  C   UNL     1      48.526  54.387  18.989  1.00  0.00    +0.048 C 
ATOM     10  C   UNL     1      51.631  55.928  22.698  1.00  0.00    +0.048 C 
ENDBRANCH   2   3
ENDBRANCH   1   2
BRANCH   1  11
ATOM     11  C   UNL     1      52.321  53.308  18.988  1.00  0.00    +0.276 C 
ATOM     12  O   UNL     1      53.308  53.412  18.259  1.00  0.00    -0.269 OA
ATOM     13  N   UNL     1      51.352  52.340  18.794  1.00  0.00    -0.265 N 
ATOM     14  H   UNL     1      50.439  52.477  19.233  1.00  0.00    +0.191 HD
BRANCH  13  15
ATOM     15  N   UNL     1      51.366  51.655  17.561  1.00  0.00    -0.274 N 
ATOM     16  C   UNL     1      50.358  50.744  17.261  1.00  0.00    +0.185 C 
ATOM     17  S   UNL     1      49.239  50.184  18.377  1.00  0.00    -0.039 S 
ATOM     18  N   UNL     1      50.423  50.351  15.933  1.00  0.00    -0.359 N 
ATOM     19  H   UNL     1      51.735  52.222  16.798  1.00  0.00    +0.190 HD
ATOM     20  H   UNL     1      51.251  50.622  15.418  1.00  0.00    +0.163 HD
BRANCH  18  21
ATOM     21  C   UNL     1      49.561  49.399  15.301  1.00  0.00    +0.081 C 
ATOM     22  C   UNL     1      49.156  49.586  13.864  1.00  0.00    +0.027 C 
ATOM     23  C   UNL     1      48.142  49.755  14.955  1.00  0.00    +0.027 C 
ENDBRANCH  18  21
ENDBRANCH  13  15
ENDBRANCH   1  11
TORSDOF 5
ENDMDL
MODEL 3
REMARK VINA RESULT:    -7.395      3.267      7.349
REMARK INTER + INTRA:          -9.630
REMARK INTER:                  -9.550
REMARK INTRA:                  -0.080
REMARK UNBOUND:                -0.073
REMARK SMILES Cc1cccc(C)c1OCC(=O)NNC(=S)NC1CC1
REMARK SMILES IDX 10 1 9 2 8 3 2 4 3 5 4 6 6 7 5 8 1 9 7 10 11 11 12 12 13 13
REMARK SMILES IDX 14 15 15 16 16 17 17 18 18 21 19 22 20 23
REMARK H PARENT 13 14 14 19 17 20
ROOT
ATOM      1  C   UNL     1      50.355  51.751  19.282  1.00  0.00    +0.331 C 
ENDROOT
BRANCH   1   2
ATOM      2  O   UNL     1      50.139  51.175  17.989  1.00  0.00    -0.483 OA
BRANCH   2   3
ATOM      3  C   UNL     1      48.937  50.513  17.956  1.00  0.00    +0.125 A 
ATOM      4  C   UNL     1      47.908  51.024  17.146  1.00  0.00    -0.009 A 
ATOM      5  C   UNL     1      46.676  50.358  17.126  1.00  0.00    +0.007 A 
ATOM      6  C   UNL     1      46.490  49.192  17.868  1.00  0.00    +0.001 A 
ATOM      7  C   UNL     1      48.780  49.312  18.666  1.00  0.00    -0.009 A 
ATOM      8  C   UNL     1      47.535  48.670  18.630  1.00  0.00    +0.007 A 
ATOM      9  C   UNL     1      48.096  52.272  16.334  1.00  0.00    +0.048 C 
ATOM     10  C   UNL     1      49.889  48.720  19.486  1.00  0.00    +0.048 C 
ENDBRANCH   2   3
ENDBRANCH   1   2
BRANCH   1  11
ATOM     11  C   UNL     1      50.579  53.255  19.171  1.00  0.00    +0.276 C 
ATOM     12  O   UNL     1      51.408  53.752  18.408  1.00  0.00    -0.269 OA
ATOM     13  N   UNL     1      49.761  54.021  19.982  1.00  0.00    -0.265 N 
ATOM     14  H   UNL     1      49.312  53.566  20.780  1.00  0.00    +0.191 HD
BRANCH  13  15
ATOM     15  N   UNL     1      50.100  55.381  20.135  1.00  0.00    -0.274 N 
ATOM     16  C   UNL     1      51.010  55.763  21.116  1.00  0.00    +0.185 C 
ATOM     17  S   UNL     1      51.555  54.749  22.335  1.00  0.00    -0.039 S 
ATOM     18  N   UNL     1      51.379  57.091  20.962  1.00  0.00    -0.359 N 
ATOM     19  H   UNL     1      50.118  55.886  19.250  1.00  0.00    +0.190 HD
ATOM     20  H   UNL     1      50.842  57.638  20.300  1.00  0.00    +0.163 HD
BRANCH  18  21
ATOM     21  C   UNL     1      52.269  57.815  21.817  1.00  0.00    +0.081 C 
ATOM     22  C   UNL     1      52.997  59.025  21.296  1.00  0.00    +0.027 C 
ATOM     23  C   UNL     1      53.756  57.768  21.599  1.00  0.00    +0.027 C 
ENDBRANCH  18  21
ENDBRANCH  13  15
ENDBRANCH   1  11
TORSDOF 5
ENDMDL
MODEL 4
REMARK VINA RESULT:    -7.357      2.578      3.477
REMARK INTER + INTRA:          -9.579
REMARK INTER:                  -9.282
REMARK INTRA:                  -0.298
REMARK UNBOUND:                -0.073
REMARK SMILES Cc1cccc(C)c1OCC(=O)NNC(=S)NC1CC1
REMARK SMILES IDX 10 1 9 2 8 3 2 4 3 5 4 6 6 7 5 8 1 9 7 10 11 11 12 12 13 13
REMARK SMILES IDX 14 15 15 16 16 17 17 18 18 21 19 22 20 23
REMARK H PARENT 13 14 14 19 17 20
ROOT
ATOM      1  C   UNL     1      50.080  53.823  18.796  1.00  0.00    +0.331 C 
ENDROOT
BRANCH   1   2
ATOM      2  O   UNL     1      49.501  53.870  20.104  1.00  0.00    -0.483 OA
BRANCH   2   3
ATOM      3  C   UNL     1      50.038  54.906  20.827  1.00  0.00    +0.125 A 
ATOM      4  C   UNL     1      49.411  56.162  20.774  1.00  0.00    -0.009 A 
ATOM      5  C   UNL     1      49.969  57.223  21.498  1.00  0.00    +0.007 A 
ATOM      6  C   UNL     1      51.105  57.025  22.282  1.00  0.00    +0.001 A 
ATOM      7  C   UNL     1      51.150  54.679  21.653  1.00  0.00    -0.009 A 
ATOM      8  C   UNL     1      51.690  55.761  22.363  1.00  0.00    +0.007 A 
ATOM      9  C   UNL     1      48.182  56.390  19.942  1.00  0.00    +0.048 C 
ATOM     10  C   UNL     1      51.796  53.328  21.770  1.00  0.00    +0.048 C 
ENDBRANCH   2   3
ENDBRANCH   1   2
BRANCH   1  11
ATOM     11  C   UNL     1      49.143  53.123  17.818  1.00  0.00    +0.276 C 
ATOM     12  O   UNL     1      48.259  53.717  17.198  1.00  0.00    -0.269 OA
ATOM     13  N   UNL     1      49.376  51.768  17.664  1.00  0.00    -0.265 N 
ATOM     14  H   UNL     1      49.908  51.286  18.392  1.00  0.00    +0.191 HD
BRANCH  13  15
ATOM     15  N   UNL     1      48.385  51.017  17.000  1.00  0.00    -0.274 N 
ATOM     16  C   UNL     1      47.951  49.810  17.540  1.00  0.00    +0.185 C 
ATOM     17  S   UNL     1      48.710  49.025  18.811  1.00  0.00    -0.039 S 
ATOM     18  N   UNL     1      46.831  49.341  16.870  1.00  0.00    -0.359 N 
ATOM     19  H   UNL     1      47.695  51.601  16.529  1.00  0.00    +0.190 HD
ATOM     20  H   UNL     1      46.583  49.815  16.010  1.00  0.00    +0.163 HD
BRANCH  18  21
ATOM     21  C   UNL     1      46.149  48.112  17.142  1.00  0.00    +0.081 C 
ATOM     22  C   UNL     1      44.702  47.954  16.760  1.00  0.00    +0.027 C 
ATOM     23  C   UNL     1      45.089  48.039  18.206  1.00  0.00    +0.027 C 
ENDBRANCH  18  21
ENDBRANCH  13  15
ENDBRANCH   1  11
TORSDOF 5
ENDMDL
MODEL 5
REMARK VINA RESULT:    -6.900      3.891      7.542
REMARK INTER + INTRA:          -8.990
REMARK INTER:                  -8.653
REMARK INTRA:                  -0.337
REMARK UNBOUND:                -0.073
REMARK SMILES Cc1cccc(C)c1OCC(=O)NNC(=S)NC1CC1
REMARK SMILES IDX 10 1 9 2 8 3 2 4 3 5 4 6 6 7 5 8 1 9 7 10 11 11 12 12 13 13
REMARK SMILES IDX 14 15 15 16 16 17 17 18 18 21 19 22 20 23
REMARK H PARENT 13 14 14 19 17 20
ROOT
ATOM      1  C   UNL     1      49.857  53.817  19.595  1.00  0.00    +0.331 C 
ENDROOT
BRANCH   1   2
ATOM      2  O   UNL     1      50.111  53.329  18.273  1.00  0.00    -0.483 OA
BRANCH   2   3
ATOM      3  C   UNL     1      49.329  52.232  18.009  1.00  0.00    +0.125 A 
ATOM      4  C   UNL     1      48.213  52.386  17.168  1.00  0.00    -0.009 A 
ATOM      5  C   UNL     1      47.405  51.271  16.914  1.00  0.00    +0.007 A 
ATOM      6  C   UNL     1      47.724  50.027  17.457  1.00  0.00    +0.001 A 
ATOM      7  C   UNL     1      49.691  50.976  18.520  1.00  0.00    -0.009 A 
ATOM      8  C   UNL     1      48.861  49.879  18.252  1.00  0.00    +0.007 A 
ATOM      9  C   UNL     1      47.862  53.716  16.567  1.00  0.00    +0.048 C 
ATOM     10  C   UNL     1      50.914  50.783  19.370  1.00  0.00    +0.048 C 
ENDBRANCH   2   3
ENDBRANCH   1   2
BRANCH   1  11
ATOM     11  C   UNL     1      49.781  55.339  19.602  1.00  0.00    +0.276 C 
ATOM     12  O   UNL     1      50.779  56.058  19.545  1.00  0.00    -0.269 OA
ATOM     13  N   UNL     1      48.497  55.852  19.657  1.00  0.00    -0.265 N 
ATOM     14  H   UNL     1      47.748  55.240  19.987  1.00  0.00    +0.191 HD
BRANCH  13  15
ATOM     15  N   UNL     1      48.367  57.226  19.945  1.00  0.00    -0.274 N 
ATOM     16  C   UNL     1      47.862  58.093  18.979  1.00  0.00    +0.185 C 
ATOM     17  S   UNL     1      47.634  57.674  17.372  1.00  0.00    -0.039 S 
ATOM     18  N   UNL     1      47.602  59.342  19.521  1.00  0.00    -0.359 N 
ATOM     19  H   UNL     1      48.119  57.404  20.917  1.00  0.00    +0.190 HD
ATOM     20  H   UNL     1      47.953  59.515  20.455  1.00  0.00    +0.163 HD
BRANCH  18  21
ATOM     21  C   UNL     1      47.111  60.478  18.802  1.00  0.00    +0.081 C 
ATOM     22  C   UNL     1      46.816  61.761  19.531  1.00  0.00    +0.027 C 
ATOM     23  C   UNL     1      45.691  60.943  18.971  1.00  0.00    +0.027 C 
ENDBRANCH  18  21
ENDBRANCH  13  15
ENDBRANCH   1  11
TORSDOF 5
ENDMDL
