MODEL 1
REMARK VINA RESULT:    -9.821      0.000      0.000
REMARK INTER + INTRA:         -17.290
REMARK INTER:                 -16.136
REMARK INTRA:                  -1.154
REMARK UNBOUND:                -1.154
REMARK SMILES NC(=O)CCN(C(=O)COC(=O)CNC(=O)c1sc2ccccc2c1Cl)c1ccc(F)cc1
REMARK SMILES IDX 9 1 10 2 11 3 12 4 13 5 14 6 15 7 16 8 17 10 22 11 21 12
REMARK SMILES IDX 23 13 20 14 24 15 19 16 25 17 18 18 26 19 7 20 8 21 6 22
REMARK SMILES IDX 5 23 4 24 2 25 3 26 1 27 27 30 28 31 33 32 29 33 32 34 30 35
REMARK SMILES IDX 31 36
REMARK H PARENT 14 9 1 28 1 29
ROOT
ATOM      1  C   UNL     1      51.627  53.289  21.610  1.00  0.00    +0.333 C 
ENDROOT
BRANCH   1   2
ATOM      2  O   UNL     1      50.507  52.942  20.788  1.00  0.00    -0.454 OA
BRANCH   2   3
ATOM      3  C   UNL     1      50.835  52.641  19.497  1.00  0.00    +0.325 C 
ATOM      4  O   UNL     1      50.873  53.460  18.585  1.00  0.00    -0.250 OA
BRANCH   3   5
ATOM      5  C   UNL     1      51.047  51.142  19.298  1.00  0.00    +0.239 C 
BRANCH   5   6
ATOM      6  N   UNL     1      50.123  50.542  18.346  1.00  0.00    -0.340 N 
ATOM      7  C   UNL     1      49.495  49.338  18.614  1.00  0.00    +0.263 C 
ATOM      8  O   UNL     1      49.875  48.636  19.547  1.00  0.00    -0.268 OA
ATOM      9  H   UNL     1      49.664  51.160  17.688  1.00  0.00    +0.164 HD
BRANCH   7  10
ATOM     10  C   UNL     1      48.390  48.987  17.728  1.00  0.00    +0.112 A 
ATOM     11  C   UNL     1      45.361  47.975  14.167  1.00  0.00    +0.001 A 
ATOM     12  C   UNL     1      44.454  47.763  15.196  1.00  0.00    +0.002 A 
ATOM     13  C   UNL     1      46.674  48.356  14.455  1.00  0.00    +0.011 A 
ATOM     14  C   UNL     1      44.843  47.928  16.526  1.00  0.00    +0.020 A 
ATOM     15  C   UNL     1      47.104  48.536  15.797  1.00  0.00    +0.012 A 
ATOM     16  C   UNL     1      46.168  48.314  16.809  1.00  0.00    +0.037 A 
ATOM     17  C   UNL     1      48.382  48.921  16.346  1.00  0.00    +0.072 A 
ATOM     18  S   UNL     1      46.851  48.573  18.362  1.00  0.00    -0.128 S 
ATOM     19 Cl   UNL     1      49.721  49.258  15.319  1.00  0.00    -0.082 Cl
ENDBRANCH   7  10
ENDBRANCH   5   6
ENDBRANCH   3   5
ENDBRANCH   2   3
ENDBRANCH   1   2
BRANCH   1  20
ATOM     20  C   UNL     1      51.582  54.755  22.075  1.00  0.00    +0.265 C 
ATOM     21  O   UNL     1      51.843  55.042  23.246  1.00  0.00    -0.271 OA
BRANCH  20  22
ATOM     22  N   UNL     1      51.316  55.733  21.110  1.00  0.00    -0.309 N 
BRANCH  22  23
ATOM     23  C   UNL     1      52.460  56.221  20.322  1.00  0.00    +0.135 C 
BRANCH  23  24
ATOM     24  C   UNL     1      52.686  57.720  20.504  1.00  0.00    +0.121 C 
BRANCH  24  25
ATOM     25  C   UNL     1      53.474  57.994  21.761  1.00  0.00    +0.219 C 
ATOM     26  O   UNL     1      54.444  57.343  22.130  1.00  0.00    -0.275 OA
ATOM     27  N   UNL     1      53.060  59.090  22.460  1.00  0.00    -0.370 N 
ATOM     28  H   UNL     1      52.126  59.463  22.344  1.00  0.00    +0.159 HD
ATOM     29  H   UNL     1      53.511  59.244  23.354  1.00  0.00    +0.159 HD
ENDBRANCH  24  25
ENDBRANCH  23  24
ENDBRANCH  22  23
BRANCH  22  30
ATOM     30  C   UNL     1      50.083  56.438  21.002  1.00  0.00    +0.044 A 
ATOM     31  C   UNL     1      49.137  56.073  20.033  1.00  0.00    +0.029 A 
ATOM     32  C   UNL     1      49.808  57.537  21.831  1.00  0.00    +0.029 A 
ATOM     33  C   UNL     1      47.932  56.771  19.914  1.00  0.00    +0.041 A 
ATOM     34  C   UNL     1      48.604  58.238  21.709  1.00  0.00    +0.041 A 
ATOM     35  C   UNL     1      47.676  57.845  20.754  1.00  0.00    +0.123 A 
ATOM     36  F   UNL     1      46.523  58.517  20.639  1.00  0.00    -0.207 F 
ENDBRANCH  22  30
ENDBRANCH  20  22
ENDBRANCH   1  20
TORSDOF 11
ENDMDL
MODEL 2
REMARK VINA RESULT:    -9.744      1.494      2.033
REMARK INTER + INTRA:         -17.164
REMARK INTER:                 -16.146
REMARK INTRA:                  -1.018
REMARK UNBOUND:                -1.154
REMARK SMILES NC(=O)CCN(C(=O)COC(=O)CNC(=O)c1sc2ccccc2c1Cl)c1ccc(F)cc1
REMARK SMILES IDX 9 1 10 2 11 3 12 4 13 5 14 6 15 7 16 8 17 10 22 11 21 12
REMARK SMILES IDX 23 13 20 14 24 15 19 16 25 17 18 18 26 19 7 20 8 21 6 22
REMARK SMILES IDX 5 23 4 24 2 25 3 26 1 27 27 30 28 31 33 32 29 33 32 34 30 35
REMARK SMILES IDX 31 36
REMARK H PARENT 14 9 1 28 1 29
ROOT
ATOM      1  C   UNL     1      51.797  53.005  21.777  1.00  0.00    +0.333 C 
ENDROOT
BRANCH   1   2
ATOM      2  O   UNL     1      51.615  52.758  20.378  1.00  0.00    -0.454 OA
BRANCH   2   3
ATOM      3  C   UNL     1      52.226  51.621  19.930  1.00  0.00    +0.325 C 
ATOM      4  O   UNL     1      52.860  50.852  20.644  1.00  0.00    -0.250 OA
BRANCH   3   5
ATOM      5  C   UNL     1      52.117  51.474  18.415  1.00  0.00    +0.239 C 
BRANCH   5   6
ATOM      6  N   UNL     1      50.989  50.660  17.985  1.00  0.00    -0.340 N 
ATOM      7  C   UNL     1      49.826  51.238  17.505  1.00  0.00    +0.263 C 
ATOM      8  O   UNL     1      49.628  52.442  17.647  1.00  0.00    -0.268 OA
ATOM      9  H   UNL     1      51.184  49.712  17.689  1.00  0.00    +0.164 HD
BRANCH   7  10
ATOM     10  C   UNL     1      48.892  50.331  16.846  1.00  0.00    +0.112 A 
ATOM     11  C   UNL     1      45.715  47.017  15.504  1.00  0.00    +0.001 A 
ATOM     12  C   UNL     1      45.904  47.559  14.241  1.00  0.00    +0.002 A 
ATOM     13  C   UNL     1      46.406  47.535  16.602  1.00  0.00    +0.011 A 
ATOM     14  C   UNL     1      46.784  48.625  14.054  1.00  0.00    +0.020 A 
ATOM     15  C   UNL     1      47.312  48.619  16.448  1.00  0.00    +0.012 A 
ATOM     16  C   UNL     1      47.480  49.143  15.165  1.00  0.00    +0.037 A 
ATOM     17  C   UNL     1      48.134  49.319  17.407  1.00  0.00    +0.072 A 
ATOM     18  S   UNL     1      48.603  50.440  15.159  1.00  0.00    -0.128 S 
ATOM     19 Cl   UNL     1      48.124  48.877  19.071  1.00  0.00    -0.082 Cl
ENDBRANCH   7  10
ENDBRANCH   5   6
ENDBRANCH   3   5
ENDBRANCH   2   3
ENDBRANCH   1   2
BRANCH   1  20
ATOM     20  C   UNL     1      51.639  54.494  22.133  1.00  0.00    +0.265 C 
ATOM     21  O   UNL     1      51.790  54.872  23.299  1.00  0.00    -0.271 OA
BRANCH  20  22
ATOM     22  N   UNL     1      51.401  55.390  21.085  1.00  0.00    -0.309 N 
BRANCH  22  23
ATOM     23  C   UNL     1      52.555  55.753  20.244  1.00  0.00    +0.135 C 
BRANCH  23  24
ATOM     24  C   UNL     1      52.793  57.261  20.216  1.00  0.00    +0.121 C 
BRANCH  24  25
ATOM     25  C   UNL     1      53.605  57.697  21.409  1.00  0.00    +0.219 C 
ATOM     26  O   UNL     1      54.752  57.336  21.640  1.00  0.00    -0.275 OA
ATOM     27  N   UNL     1      52.980  58.601  22.220  1.00  0.00    -0.370 N 
ATOM     28  H   UNL     1      51.972  58.697  22.217  1.00  0.00    +0.159 HD
ATOM     29  H   UNL     1      53.465  58.841  23.075  1.00  0.00    +0.159 HD
ENDBRANCH  24  25
ENDBRANCH  23  24
ENDBRANCH  22  23
BRANCH  22  30
ATOM     30  C   UNL     1      50.198  56.135  20.924  1.00  0.00    +0.044 A 
ATOM     31  C   UNL     1      49.924  57.232  21.754  1.00  0.00    +0.029 A 
ATOM     32  C   UNL     1      49.244  55.764  19.963  1.00  0.00    +0.029 A 
ATOM     33  C   UNL     1      48.739  57.958  21.609  1.00  0.00    +0.041 A 
ATOM     34  C   UNL     1      48.057  56.488  19.820  1.00  0.00    +0.041 A 
ATOM     35  C   UNL     1      47.818  57.581  20.642  1.00  0.00    +0.123 A 
ATOM     36  F   UNL     1      46.680  58.274  20.504  1.00  0.00    -0.207 F 
ENDBRANCH  22  30
ENDBRANCH  20  22
ENDBRANCH   1  20
TORSDOF 11
ENDMDL
MODEL 3
REMARK VINA RESULT:    -9.306      3.830      9.181
REMARK INTER + INTRA:         -16.444
REMARK INTER:                 -14.926
REMARK INTRA:                  -1.518
REMARK UNBOUND:                -1.154
REMARK SMILES NC(=O)CCN(C(=O)COC(=O)CNC(=O)c1sc2ccccc2c1Cl)c1ccc(F)cc1
REMARK SMILES IDX 9 1 10 2 11 3 12 4 13 5 14 6 15 7 16 8 17 10 22 11 21 12
REMARK SMILES IDX 23 13 20 14 24 15 19 16 25 17 18 18 26 19 7 20 8 21 6 22
REMARK SMILES IDX 5 23 4 24 2 25 3 26 1 27 27 30 28 31 33 32 29 33 32 34 30 35
REMARK SMILES IDX 31 36
REMARK H PARENT 14 9 1 28 1 29
ROOT
ATOM      1  C   UNL     1      49.344  49.741  18.557  1.00  0.00    +0.333 C 
ENDROOT
BRANCH   1   2
ATOM      2  O   UNL     1      50.773  49.685  18.634  1.00  0.00    -0.454 OA
BRANCH   2   3
ATOM      3  C   UNL     1      51.264  49.743  19.907  1.00  0.00    +0.325 C 
ATOM      4  O   UNL     1      50.833  49.079  20.843  1.00  0.00    -0.250 OA
BRANCH   3   5
ATOM      5  C   UNL     1      52.346  50.809  20.053  1.00  0.00    +0.239 C 
BRANCH   5   6
ATOM      6  N   UNL     1      51.832  52.116  20.438  1.00  0.00    -0.340 N 
ATOM      7  C   UNL     1      51.702  53.138  19.513  1.00  0.00    +0.263 C 
ATOM      8  O   UNL     1      52.230  53.045  18.408  1.00  0.00    -0.268 OA
ATOM      9  H   UNL     1      51.237  52.161  21.255  1.00  0.00    +0.164 HD
BRANCH   7  10
ATOM     10  C   UNL     1      50.918  54.290  19.946  1.00  0.00    +0.112 A 
ATOM     11  C   UNL     1      47.730  57.752  20.801  1.00  0.00    +0.001 A 
ATOM     12  C   UNL     1      48.699  58.226  21.673  1.00  0.00    +0.002 A 
ATOM     13  C   UNL     1      47.958  56.587  20.063  1.00  0.00    +0.011 A 
ATOM     14  C   UNL     1      49.908  57.547  21.823  1.00  0.00    +0.020 A 
ATOM     15  C   UNL     1      49.178  55.872  20.189  1.00  0.00    +0.012 A 
ATOM     16  C   UNL     1      50.132  56.373  21.075  1.00  0.00    +0.037 A 
ATOM     17  C   UNL     1      49.648  54.666  19.548  1.00  0.00    +0.072 A 
ATOM     18  S   UNL     1      51.539  55.391  21.105  1.00  0.00    -0.128 S 
ATOM     19 Cl   UNL     1      48.669  53.835  18.401  1.00  0.00    -0.082 Cl
ENDBRANCH   7  10
ENDBRANCH   5   6
ENDBRANCH   3   5
ENDBRANCH   2   3
ENDBRANCH   1   2
BRANCH   1  20
ATOM     20  C   UNL     1      48.770  48.707  17.573  1.00  0.00    +0.265 C 
ATOM     21  O   UNL     1      48.972  47.502  17.751  1.00  0.00    -0.271 OA
BRANCH  20  22
ATOM     22  N   UNL     1      47.958  49.180  16.536  1.00  0.00    -0.309 N 
BRANCH  22  23
ATOM     23  C   UNL     1      48.294  50.500  15.975  1.00  0.00    +0.135 C 
BRANCH  23  24
ATOM     24  C   UNL     1      49.043  50.388  14.649  1.00  0.00    +0.121 C 
BRANCH  24  25
ATOM     25  C   UNL     1      50.382  49.721  14.846  1.00  0.00    +0.219 C 
ATOM     26  O   UNL     1      50.730  48.684  14.295  1.00  0.00    -0.275 OA
ATOM     27  N   UNL     1      51.237  50.401  15.664  1.00  0.00    -0.370 N 
ATOM     28  H   UNL     1      50.895  51.079  16.332  1.00  0.00    +0.159 HD
ATOM     29  H   UNL     1      52.107  49.931  15.886  1.00  0.00    +0.159 HD
ENDBRANCH  24  25
ENDBRANCH  23  24
ENDBRANCH  22  23
BRANCH  22  30
ATOM     30  C   UNL     1      46.720  48.589  16.153  1.00  0.00    +0.044 A 
ATOM     31  C   UNL     1      46.502  48.187  14.827  1.00  0.00    +0.029 A 
ATOM     32  C   UNL     1      45.679  48.435  17.083  1.00  0.00    +0.029 A 
ATOM     33  C   UNL     1      45.283  47.620  14.444  1.00  0.00    +0.041 A 
ATOM     34  C   UNL     1      44.459  47.870  16.699  1.00  0.00    +0.041 A 
ATOM     35  C   UNL     1      44.274  47.465  15.384  1.00  0.00    +0.123 A 
ATOM     36  F   UNL     1      43.105  46.924  15.018  1.00  0.00    -0.207 F 
ENDBRANCH  22  30
ENDBRANCH  20  22
ENDBRANCH   1  20
TORSDOF 11
ENDMDL
MODEL 4
REMARK VINA RESULT:    -8.978      1.921      2.375
REMARK INTER + INTRA:         -15.905
REMARK INTER:                 -14.525
REMARK INTRA:                  -1.381
REMARK UNBOUND:                -1.154
REMARK SMILES NC(=O)CCN(C(=O)COC(=O)CNC(=O)c1sc2ccccc2c1Cl)c1ccc(F)cc1
REMARK SMILES IDX 9 1 10 2 11 3 12 4 13 5 14 6 15 7 16 8 17 10 22 11 21 12
REMARK SMILES IDX 23 13 20 14 24 15 19 16 25 17 18 18 26 19 7 20 8 21 6 22
REMARK SMILES IDX 5 23 4 24 2 25 3 26 1 27 27 30 28 31 33 32 29 33 32 34 30 35
REMARK SMILES IDX 31 36
REMARK H PARENT 14 9 1 28 1 29
ROOT
ATOM      1  C   UNL     1      51.308  54.382  21.633  1.00  0.00    +0.333 C 
ENDROOT
BRANCH   1   2
ATOM      2  O   UNL     1      52.530  54.343  20.886  1.00  0.00    -0.454 OA
BRANCH   2   3
ATOM      3  C   UNL     1      52.430  53.693  19.689  1.00  0.00    +0.325 C 
ATOM      4  O   UNL     1      52.409  54.253  18.599  1.00  0.00    -0.250 OA
BRANCH   3   5
ATOM      5  C   UNL     1      52.240  52.189  19.871  1.00  0.00    +0.239 C 
BRANCH   5   6
ATOM      6  N   UNL     1      50.902  51.723  19.533  1.00  0.00    -0.340 N 
ATOM      7  C   UNL     1      50.669  50.974  18.392  1.00  0.00    +0.263 C 
ATOM      8  O   UNL     1      51.532  50.882  17.523  1.00  0.00    -0.268 OA
ATOM      9  H   UNL     1      50.238  51.622  20.289  1.00  0.00    +0.164 HD
BRANCH   7  10
ATOM     10  C   UNL     1      49.362  50.331  18.312  1.00  0.00    +0.112 A 
ATOM     11  C   UNL     1      44.873  48.895  17.492  1.00  0.00    +0.001 A 
ATOM     12  C   UNL     1      45.202  47.861  18.356  1.00  0.00    +0.002 A 
ATOM     13  C   UNL     1      45.816  49.878  17.180  1.00  0.00    +0.011 A 
ATOM     14  C   UNL     1      46.476  47.791  18.922  1.00  0.00    +0.020 A 
ATOM     15  C   UNL     1      47.122  49.839  17.740  1.00  0.00    +0.012 A 
ATOM     16  C   UNL     1      47.422  48.786  18.605  1.00  0.00    +0.037 A 
ATOM     17  C   UNL     1      48.254  50.720  17.580  1.00  0.00    +0.072 A 
ATOM     18  S   UNL     1      49.033  48.892  19.186  1.00  0.00    -0.128 S 
ATOM     19 Cl   UNL     1      48.160  52.108  16.566  1.00  0.00    -0.082 Cl
ENDBRANCH   7  10
ENDBRANCH   5   6
ENDBRANCH   3   5
ENDBRANCH   2   3
ENDBRANCH   1   2
BRANCH   1  20
ATOM     20  C   UNL     1      50.188  55.124  20.883  1.00  0.00    +0.265 C 
ATOM     21  O   UNL     1      49.274  54.490  20.348  1.00  0.00    -0.271 OA
BRANCH  20  22
ATOM     22  N   UNL     1      50.209  56.523  20.905  1.00  0.00    -0.309 N 
BRANCH  22  23
ATOM     23  C   UNL     1      51.222  57.161  21.762  1.00  0.00    +0.135 C 
BRANCH  23  24
ATOM     24  C   UNL     1      52.206  58.006  20.957  1.00  0.00    +0.121 C 
BRANCH  24  25
ATOM     25  C   UNL     1      53.626  57.732  21.390  1.00  0.00    +0.219 C 
ATOM     26  O   UNL     1      54.473  57.188  20.693  1.00  0.00    -0.275 OA
ATOM     27  N   UNL     1      53.937  58.198  22.635  1.00  0.00    -0.370 N 
ATOM     28  H   UNL     1      53.216  58.387  23.319  1.00  0.00    +0.159 HD
ATOM     29  H   UNL     1      54.854  57.948  22.986  1.00  0.00    +0.159 HD
ENDBRANCH  24  25
ENDBRANCH  23  24
ENDBRANCH  22  23
BRANCH  22  30
ATOM     30  C   UNL     1      49.191  57.350  20.349  1.00  0.00    +0.044 A 
ATOM     31  C   UNL     1      48.375  58.131  21.180  1.00  0.00    +0.029 A 
ATOM     32  C   UNL     1      48.955  57.368  18.965  1.00  0.00    +0.029 A 
ATOM     33  C   UNL     1      47.366  58.933  20.640  1.00  0.00    +0.041 A 
ATOM     34  C   UNL     1      47.943  58.167  18.425  1.00  0.00    +0.041 A 
ATOM     35  C   UNL     1      47.161  58.945  19.268  1.00  0.00    +0.123 A 
ATOM     36  F   UNL     1      46.192  59.711  18.750  1.00  0.00    -0.207 F 
ENDBRANCH  22  30
ENDBRANCH  20  22
ENDBRANCH   1  20
TORSDOF 11
ENDMDL
MODEL 5
REMARK VINA RESULT:    -8.396      3.995      5.449
REMARK INTER + INTRA:         -14.949
REMARK INTER:                 -13.680
REMARK INTRA:                  -1.270
REMARK UNBOUND:                -1.154
REMARK SMILES NC(=O)CCN(C(=O)COC(=O)CNC(=O)c1sc2ccccc2c1Cl)c1ccc(F)cc1
REMARK SMILES IDX 9 1 10 2 11 3 12 4 13 5 14 6 15 7 16 8 17 10 22 11 21 12
REMARK SMILES IDX 23 13 20 14 24 15 19 16 25 17 18 18 26 19 7 20 8 21 6 22
REMARK SMILES IDX 5 23 4 24 2 25 3 26 1 27 27 30 28 31 33 32 29 33 32 34 30 35
REMARK SMILES IDX 31 36
REMARK H PARENT 14 9 1 28 1 29
ROOT
ATOM      1  C   UNL     1      49.558  57.782  20.237  1.00  0.00    +0.333 C 
ENDROOT
BRANCH   1   2
ATOM      2  O   UNL     1      49.751  56.660  21.105  1.00  0.00    -0.454 OA
BRANCH   2   3
ATOM      3  C   UNL     1      51.007  56.125  21.052  1.00  0.00    +0.325 C 
ATOM      4  O   UNL     1      51.784  56.093  21.999  1.00  0.00    -0.250 OA
BRANCH   3   5
ATOM      5  C   UNL     1      51.372  55.665  19.642  1.00  0.00    +0.239 C 
BRANCH   5   6
ATOM      6  N   UNL     1      50.493  54.629  19.119  1.00  0.00    -0.340 N 
ATOM      7  C   UNL     1      51.002  53.462  18.574  1.00  0.00    +0.263 C 
ATOM      8  O   UNL     1      52.197  53.373  18.306  1.00  0.00    -0.268 OA
ATOM      9  H   UNL     1      49.550  54.589  19.483  1.00  0.00    +0.164 HD
BRANCH   7  10
ATOM     10  C   UNL     1      50.035  52.392  18.351  1.00  0.00    +0.112 A 
ATOM     11  C   UNL     1      47.385  48.414  18.179  1.00  0.00    +0.001 A 
ATOM     12  C   UNL     1      46.595  49.154  17.312  1.00  0.00    +0.002 A 
ATOM     13  C   UNL     1      48.530  48.981  18.745  1.00  0.00    +0.011 A 
ATOM     14  C   UNL     1      46.935  50.470  16.995  1.00  0.00    +0.020 A 
ATOM     15  C   UNL     1      48.906  50.317  18.443  1.00  0.00    +0.012 A 
ATOM     16  C   UNL     1      48.091  51.036  17.568  1.00  0.00    +0.037 A 
ATOM     17  C   UNL     1      50.023  51.117  18.888  1.00  0.00    +0.072 A 
ATOM     18  S   UNL     1      48.689  52.625  17.315  1.00  0.00    -0.128 S 
ATOM     19 Cl   UNL     1      51.193  50.476  19.976  1.00  0.00    -0.082 Cl
ENDBRANCH   7  10
ENDBRANCH   5   6
ENDBRANCH   3   5
ENDBRANCH   2   3
ENDBRANCH   1   2
BRANCH   1  20
ATOM     20  C   UNL     1      48.104  57.900  19.748  1.00  0.00    +0.265 C 
ATOM     21  O   UNL     1      47.177  57.494  20.454  1.00  0.00    -0.271 OA
BRANCH  20  22
ATOM     22  N   UNL     1      47.881  58.548  18.527  1.00  0.00    -0.309 N 
BRANCH  22  23
ATOM     23  C   UNL     1      47.801  60.019  18.558  1.00  0.00    +0.135 C 
BRANCH  23  24
ATOM     24  C   UNL     1      46.529  60.510  19.244  1.00  0.00    +0.121 C 
BRANCH  24  25
ATOM     25  C   UNL     1      46.398  62.008  19.120  1.00  0.00    +0.219 C 
ATOM     26  O   UNL     1      46.232  62.773  20.061  1.00  0.00    -0.275 OA
ATOM     27  N   UNL     1      46.539  62.484  17.848  1.00  0.00    -0.370 N 
ATOM     28  H   UNL     1      46.395  61.884  17.045  1.00  0.00    +0.159 HD
ATOM     29  H   UNL     1      46.365  63.474  17.722  1.00  0.00    +0.159 HD
ENDBRANCH  24  25
ENDBRANCH  23  24
ENDBRANCH  22  23
BRANCH  22  30
ATOM     30  C   UNL     1      47.504  57.885  17.324  1.00  0.00    +0.044 A 
ATOM     31  C   UNL     1      48.137  56.694  16.939  1.00  0.00    +0.029 A 
ATOM     32  C   UNL     1      46.524  58.430  16.479  1.00  0.00    +0.029 A 
ATOM     33  C   UNL     1      47.781  56.048  15.753  1.00  0.00    +0.041 A 
ATOM     34  C   UNL     1      46.170  57.785  15.291  1.00  0.00    +0.041 A 
ATOM     35  C   UNL     1      46.799  56.598  14.941  1.00  0.00    +0.123 A 
ATOM     36  F   UNL     1      46.458  55.981  13.803  1.00  0.00    -0.207 F 
ENDBRANCH  22  30
ENDBRANCH  20  22
ENDBRANCH   1  20
TORSDOF 11
ENDMDL
