MODEL 1
REMARK VINA RESULT:    -8.390      0.000      0.000
REMARK INTER + INTRA:         -16.051
REMARK INTER:                 -13.785
REMARK INTRA:                  -2.266
REMARK UNBOUND:                -2.266
REMARK SMILES Cc1ccc(S(=O)(=O)N[C@H](CSCc2ccccc2)C(=O)N[C@@H](C(N)=O)C(C)C)cc1
REMARK SMILES IDX 10 1 9 2 6 4 7 5 8 6 5 7 2 8 3 9 31 10 4 11 30 12 1 13 11 14
REMARK SMILES IDX 12 15 13 16 14 17 15 18 19 19 16 20 18 21 17 22 20 23 21 24
REMARK SMILES IDX 22 25 23 27 27 28 28 29 29 30 24 31 26 32 25 33
REMARK H PARENT 9 3 22 26 25 34 25 35
ROOT
ATOM      1  C   UNL     1      50.180  51.538  18.214  1.00  0.00    +0.168 C 
ENDROOT
BRANCH   1   2
ATOM      2  N   UNL     1      50.421  51.704  19.666  1.00  0.00    -0.198 NA
ATOM      3  H   UNL     1      49.953  50.994  20.241  1.00  0.00    +0.142 HD
BRANCH   2   4
ATOM      4  S   UNL     1      52.021  51.898  20.153  1.00  0.00    +0.241 S 
ATOM      5  O   UNL     1      52.880  51.724  19.004  1.00  0.00    -0.207 OA
ATOM      6  O   UNL     1      52.187  51.139  21.371  1.00  0.00    -0.207 OA
BRANCH   4   7
ATOM      7  C   UNL     1      52.025  53.618  20.599  1.00  0.00    +0.082 A 
ATOM      8  C   UNL     1      52.007  56.330  21.269  1.00  0.00    -0.051 A 
ATOM      9  C   UNL     1      51.653  55.363  22.220  1.00  0.00    +0.005 A 
ATOM     10  C   UNL     1      52.382  55.923  19.981  1.00  0.00    +0.005 A 
ATOM     11  C   UNL     1      51.652  54.007  21.887  1.00  0.00    +0.022 A 
ATOM     12  C   UNL     1      52.385  54.568  19.641  1.00  0.00    +0.022 A 
ATOM     13  C   UNL     1      52.028  57.785  21.643  1.00  0.00    +0.044 C 
ENDBRANCH   4   7
ENDBRANCH   2   4
ENDBRANCH   1   2
BRANCH   1  14
ATOM     14  C   UNL     1      49.391  52.737  17.664  1.00  0.00    +0.100 C 
BRANCH  14  15
ATOM     15  S   UNL     1      48.703  53.841  18.953  1.00  0.00    -0.155 SA
BRANCH  15  16
ATOM     16  C   UNL     1      48.997  55.433  18.125  1.00  0.00    +0.105 C 
BRANCH  16  17
ATOM     17  C   UNL     1      48.540  56.594  18.966  1.00  0.00    -0.038 A 
ATOM     18  C   UNL     1      48.693  56.569  20.359  1.00  0.00    +0.004 A 
ATOM     19  C   UNL     1      47.941  57.716  18.372  1.00  0.00    +0.004 A 
ATOM     20  C   UNL     1      48.275  57.649  21.137  1.00  0.00    +0.000 A 
ATOM     21  C   UNL     1      47.523  58.795  19.152  1.00  0.00    +0.000 A 
ATOM     22  C   UNL     1      47.692  58.762  20.534  1.00  0.00    +0.000 A 
ENDBRANCH  16  17
ENDBRANCH  15  16
ENDBRANCH  14  15
ENDBRANCH   1  14
BRANCH   1  23
ATOM     23  C   UNL     1      49.448  50.217  17.947  1.00  0.00    +0.239 C 
ATOM     24  O   UNL     1      49.689  49.184  18.573  1.00  0.00    -0.273 OA
ATOM     25  N   UNL     1      48.473  50.273  16.971  1.00  0.00    -0.343 N 
ATOM     26  H   UNL     1      48.108  51.171  16.685  1.00  0.00    +0.164 HD
BRANCH  25  27
ATOM     27  C   UNL     1      47.646  49.102  16.667  1.00  0.00    +0.173 C 
BRANCH  27  28
ATOM     28  C   UNL     1      47.132  49.147  15.211  1.00  0.00    +0.015 C 
ATOM     29  C   UNL     1      48.265  49.455  14.226  1.00  0.00    +0.010 C 
ATOM     30  C   UNL     1      46.478  47.818  14.817  1.00  0.00    +0.010 C 
ENDBRANCH  27  28
BRANCH  27  31
ATOM     31  C   UNL     1      46.491  49.145  17.692  1.00  0.00    +0.240 C 
ATOM     32  O   UNL     1      45.560  49.945  17.650  1.00  0.00    -0.273 OA
ATOM     33  N   UNL     1      46.634  48.286  18.748  1.00  0.00    -0.368 N 
ATOM     34  H   UNL     1      47.566  47.933  18.969  1.00  0.00    +0.159 HD
ATOM     35  H   UNL     1      45.997  48.398  19.524  1.00  0.00    +0.159 HD
ENDBRANCH  27  31
ENDBRANCH  25  27
ENDBRANCH   1  23
TORSDOF 11
ENDMDL
MODEL 2
REMARK VINA RESULT:    -7.915      1.979      3.933
REMARK INTER + INTRA:         -15.271
REMARK INTER:                 -12.786
REMARK INTRA:                  -2.485
REMARK UNBOUND:                -2.266
REMARK SMILES Cc1ccc(S(=O)(=O)N[C@H](CSCc2ccccc2)C(=O)N[C@@H](C(N)=O)C(C)C)cc1
REMARK SMILES IDX 10 1 9 2 6 4 7 5 8 6 5 7 2 8 3 9 31 10 4 11 30 12 1 13 11 14
REMARK SMILES IDX 12 15 13 16 14 17 15 18 19 19 16 20 18 21 17 22 20 23 21 24
REMARK SMILES IDX 22 25 23 27 27 28 28 29 29 30 24 31 26 32 25 33
REMARK H PARENT 9 3 22 26 25 34 25 35
ROOT
ATOM      1  C   UNL     1      49.810  51.636  17.971  1.00  0.00    +0.168 C 
ENDROOT
BRANCH   1   2
ATOM      2  N   UNL     1      49.753  52.980  17.350  1.00  0.00    -0.198 NA
ATOM      3  H   UNL     1      50.287  53.048  16.475  1.00  0.00    +0.142 HD
BRANCH   2   4
ATOM      4  S   UNL     1      48.228  53.668  17.167  1.00  0.00    +0.241 S 
ATOM      5  O   UNL     1      47.236  52.731  17.645  1.00  0.00    -0.207 OA
ATOM      6  O   UNL     1      48.181  54.244  15.844  1.00  0.00    -0.207 OA
BRANCH   4   7
ATOM      7  C   UNL     1      48.330  55.012  18.324  1.00  0.00    +0.082 A 
ATOM      8  C   UNL     1      48.455  57.139  20.132  1.00  0.00    -0.051 A 
ATOM      9  C   UNL     1      48.551  55.817  20.587  1.00  0.00    +0.005 A 
ATOM     10  C   UNL     1      48.307  57.385  18.759  1.00  0.00    +0.005 A 
ATOM     11  C   UNL     1      48.480  54.751  19.688  1.00  0.00    +0.022 A 
ATOM     12  C   UNL     1      48.237  56.324  17.855  1.00  0.00    +0.022 A 
ATOM     13  C   UNL     1      48.555  58.281  21.103  1.00  0.00    +0.044 C 
ENDBRANCH   4   7
ENDBRANCH   2   4
ENDBRANCH   1   2
BRANCH   1  14
ATOM     14  C   UNL     1      51.224  51.354  18.503  1.00  0.00    +0.100 C 
BRANCH  14  15
ATOM     15  S   UNL     1      52.243  52.853  18.766  1.00  0.00    -0.155 SA
BRANCH  15  16
ATOM     16  C   UNL     1      51.902  53.099  20.535  1.00  0.00    +0.105 C 
BRANCH  16  17
ATOM     17  C   UNL     1      51.928  54.556  20.913  1.00  0.00    -0.038 A 
ATOM     18  C   UNL     1      51.634  54.958  22.224  1.00  0.00    +0.004 A 
ATOM     19  C   UNL     1      52.231  55.538  19.958  1.00  0.00    +0.004 A 
ATOM     20  C   UNL     1      51.664  56.307  22.574  1.00  0.00    +0.000 A 
ATOM     21  C   UNL     1      52.260  56.888  20.311  1.00  0.00    +0.000 A 
ATOM     22  C   UNL     1      51.979  57.272  21.619  1.00  0.00    +0.000 A 
ENDBRANCH  16  17
ENDBRANCH  15  16
ENDBRANCH  14  15
ENDBRANCH   1  14
BRANCH   1  23
ATOM     23  C   UNL     1      49.369  50.568  16.962  1.00  0.00    +0.239 C 
ATOM     24  O   UNL     1      49.919  50.417  15.869  1.00  0.00    -0.273 OA
ATOM     25  N   UNL     1      48.327  49.763  17.378  1.00  0.00    -0.343 N 
ATOM     26  H   UNL     1      48.094  49.720  18.360  1.00  0.00    +0.164 HD
BRANCH  25  27
ATOM     27  C   UNL     1      47.855  48.655  16.542  1.00  0.00    +0.173 C 
BRANCH  27  28
ATOM     28  C   UNL     1      46.326  48.478  16.666  1.00  0.00    +0.015 C 
ATOM     29  C   UNL     1      45.681  49.664  17.392  1.00  0.00    +0.010 C 
ATOM     30  C   UNL     1      45.676  48.327  15.285  1.00  0.00    +0.010 C 
ENDBRANCH  27  28
BRANCH  27  31
ATOM     31  C   UNL     1      48.625  47.413  17.045  1.00  0.00    +0.240 C 
ATOM     32  O   UNL     1      48.509  46.289  16.566  1.00  0.00    -0.273 OA
ATOM     33  N   UNL     1      49.382  47.627  18.165  1.00  0.00    -0.368 N 
ATOM     34  H   UNL     1      49.162  48.428  18.759  1.00  0.00    +0.159 HD
ATOM     35  H   UNL     1      49.764  46.814  18.626  1.00  0.00    +0.159 HD
ENDBRANCH  27  31
ENDBRANCH  25  27
ENDBRANCH   1  23
TORSDOF 11
ENDMDL
MODEL 3
REMARK VINA RESULT:    -6.906      1.864      2.650
REMARK INTER + INTRA:         -13.613
REMARK INTER:                 -12.838
REMARK INTRA:                  -0.775
REMARK UNBOUND:                -2.266
REMARK SMILES Cc1ccc(S(=O)(=O)N[C@H](CSCc2ccccc2)C(=O)N[C@@H](C(N)=O)C(C)C)cc1
REMARK SMILES IDX 10 1 9 2 6 4 7 5 8 6 5 7 2 8 3 9 31 10 4 11 30 12 1 13 11 14
REMARK SMILES IDX 12 15 13 16 14 17 15 18 19 19 16 20 18 21 17 22 20 23 21 24
REMARK SMILES IDX 22 25 23 27 27 28 28 29 29 30 24 31 26 32 25 33
REMARK H PARENT 9 3 22 26 25 34 25 35
ROOT
ATOM      1  C   UNL     1      49.711  50.706  17.694  1.00  0.00    +0.168 C 
ENDROOT
BRANCH   1   2
ATOM      2  N   UNL     1      49.627  51.486  18.950  1.00  0.00    -0.198 NA
ATOM      3  H   UNL     1      48.836  51.217  19.546  1.00  0.00    +0.142 HD
BRANCH   2   4
ATOM      4  S   UNL     1      51.036  51.613  19.861  1.00  0.00    +0.241 S 
ATOM      5  O   UNL     1      52.170  51.614  18.965  1.00  0.00    -0.207 OA
ATOM      6  O   UNL     1      50.914  50.684  20.961  1.00  0.00    -0.207 OA
BRANCH   4   7
ATOM      7  C   UNL     1      50.853  53.249  20.530  1.00  0.00    +0.082 A 
ATOM      8  C   UNL     1      50.602  55.830  21.572  1.00  0.00    -0.051 A 
ATOM      9  C   UNL     1      49.724  55.379  20.575  1.00  0.00    +0.005 A 
ATOM     10  C   UNL     1      51.600  54.968  22.049  1.00  0.00    +0.005 A 
ATOM     11  C   UNL     1      49.852  54.094  20.046  1.00  0.00    +0.022 A 
ATOM     12  C   UNL     1      51.733  53.681  21.525  1.00  0.00    +0.022 A 
ATOM     13  C   UNL     1      50.444  57.206  22.152  1.00  0.00    +0.044 C 
ENDBRANCH   4   7
ENDBRANCH   2   4
ENDBRANCH   1   2
BRANCH   1  14
ATOM     14  C   UNL     1      49.075  51.490  16.535  1.00  0.00    +0.100 C 
BRANCH  14  15
ATOM     15  S   UNL     1      47.710  52.602  17.038  1.00  0.00    -0.155 SA
BRANCH  15  16
ATOM     16  C   UNL     1      48.657  54.151  17.151  1.00  0.00    +0.105 C 
BRANCH  16  17
ATOM     17  C   UNL     1      47.950  55.290  16.467  1.00  0.00    -0.038 A 
ATOM     18  C   UNL     1      47.081  55.048  15.394  1.00  0.00    +0.004 A 
ATOM     19  C   UNL     1      48.160  56.614  16.881  1.00  0.00    +0.004 A 
ATOM     20  C   UNL     1      46.422  56.104  14.765  1.00  0.00    +0.000 A 
ATOM     21  C   UNL     1      47.500  57.669  16.249  1.00  0.00    +0.000 A 
ATOM     22  C   UNL     1      46.629  57.414  15.193  1.00  0.00    +0.000 A 
ENDBRANCH  16  17
ENDBRANCH  15  16
ENDBRANCH  14  15
ENDBRANCH   1  14
BRANCH   1  23
ATOM     23  C   UNL     1      49.043  49.337  17.876  1.00  0.00    +0.239 C 
ATOM     24  O   UNL     1      49.374  48.547  18.762  1.00  0.00    -0.273 OA
ATOM     25  N   UNL     1      48.019  49.062  16.992  1.00  0.00    -0.343 N 
ATOM     26  H   UNL     1      47.589  49.819  16.478  1.00  0.00    +0.164 HD
BRANCH  25  27
ATOM     27  C   UNL     1      47.246  47.821  17.101  1.00  0.00    +0.173 C 
BRANCH  27  28
ATOM     28  C   UNL     1      46.831  47.301  15.707  1.00  0.00    +0.015 C 
ATOM     29  C   UNL     1      45.430  46.680  15.735  1.00  0.00    +0.010 C 
ATOM     30  C   UNL     1      46.856  48.427  14.668  1.00  0.00    +0.010 C 
ENDBRANCH  27  28
BRANCH  27  31
ATOM     31  C   UNL     1      46.023  48.182  17.974  1.00  0.00    +0.240 C 
ATOM     32  O   UNL     1      45.588  47.474  18.878  1.00  0.00    -0.273 OA
ATOM     33  N   UNL     1      45.365  49.319  17.589  1.00  0.00    -0.368 N 
ATOM     34  H   UNL     1      45.493  49.660  16.636  1.00  0.00    +0.159 HD
ATOM     35  H   UNL     1      44.469  49.500  18.019  1.00  0.00    +0.159 HD
ENDBRANCH  27  31
ENDBRANCH  25  27
ENDBRANCH   1  23
TORSDOF 11
ENDMDL
MODEL 4
REMARK VINA RESULT:    -6.697      8.039     11.245
REMARK INTER + INTRA:         -13.270
REMARK INTER:                 -11.478
REMARK INTRA:                  -1.791
REMARK UNBOUND:                -2.266
REMARK SMILES Cc1ccc(S(=O)(=O)N[C@H](CSCc2ccccc2)C(=O)N[C@@H](C(N)=O)C(C)C)cc1
REMARK SMILES IDX 10 1 9 2 6 4 7 5 8 6 5 7 2 8 3 9 31 10 4 11 30 12 1 13 11 14
REMARK SMILES IDX 12 15 13 16 14 17 15 18 19 19 16 20 18 21 17 22 20 23 21 24
REMARK SMILES IDX 22 25 23 27 27 28 28 29 29 30 24 31 26 32 25 33
REMARK H PARENT 9 3 22 26 25 34 25 35
ROOT
ATOM      1  C   UNL     1      44.278  61.907  19.163  1.00  0.00    +0.168 C 
ENDROOT
BRANCH   1   2
ATOM      2  N   UNL     1      45.213  60.944  18.535  1.00  0.00    -0.198 NA
ATOM      3  H   UNL     1      45.063  60.828  17.527  1.00  0.00    +0.142 HD
BRANCH   2   4
ATOM      4  S   UNL     1      46.850  61.147  18.869  1.00  0.00    +0.241 S 
ATOM      5  O   UNL     1      46.984  61.877  20.109  1.00  0.00    -0.207 OA
ATOM      6  O   UNL     1      47.482  61.573  17.642  1.00  0.00    -0.207 OA
BRANCH   4   7
ATOM      7  C   UNL     1      47.340  59.463  19.157  1.00  0.00    +0.082 A 
ATOM      8  C   UNL     1      48.145  56.822  19.587  1.00  0.00    -0.051 A 
ATOM      9  C   UNL     1      47.905  57.676  20.673  1.00  0.00    +0.005 A 
ATOM     10  C   UNL     1      47.966  57.303  18.282  1.00  0.00    +0.005 A 
ATOM     11  C   UNL     1      47.512  58.998  20.462  1.00  0.00    +0.022 A 
ATOM     12  C   UNL     1      47.572  58.625  18.064  1.00  0.00    +0.022 A 
ATOM     13  C   UNL     1      48.545  55.394  19.823  1.00  0.00    +0.044 C 
ENDBRANCH   4   7
ENDBRANCH   2   4
ENDBRANCH   1   2
BRANCH   1  14
ATOM     14  C   UNL     1      42.862  61.315  19.222  1.00  0.00    +0.100 C 
BRANCH  14  15
ATOM     15  S   UNL     1      41.936  61.418  17.645  1.00  0.00    -0.155 SA
BRANCH  15  16
ATOM     16  C   UNL     1      40.977  59.881  17.799  1.00  0.00    +0.105 C 
BRANCH  16  17
ATOM     17  C   UNL     1      41.431  58.836  16.815  1.00  0.00    -0.038 A 
ATOM     18  C   UNL     1      40.720  57.636  16.671  1.00  0.00    +0.004 A 
ATOM     19  C   UNL     1      42.579  59.038  16.035  1.00  0.00    +0.004 A 
ATOM     20  C   UNL     1      41.137  56.671  15.755  1.00  0.00    +0.000 A 
ATOM     21  C   UNL     1      42.995  58.071  15.119  1.00  0.00    +0.000 A 
ATOM     22  C   UNL     1      42.273  56.889  14.977  1.00  0.00    +0.000 A 
ENDBRANCH  16  17
ENDBRANCH  15  16
ENDBRANCH  14  15
ENDBRANCH   1  14
BRANCH   1  23
ATOM     23  C   UNL     1      44.297  63.237  18.399  1.00  0.00    +0.239 C 
ATOM     24  O   UNL     1      43.837  64.280  18.866  1.00  0.00    -0.273 OA
ATOM     25  N   UNL     1      44.896  63.190  17.156  1.00  0.00    -0.343 N 
ATOM     26  H   UNL     1      45.503  62.415  16.925  1.00  0.00    +0.164 HD
BRANCH  25  27
ATOM     27  C   UNL     1      45.049  64.405  16.350  1.00  0.00    +0.173 C 
BRANCH  27  28
ATOM     28  C   UNL     1      44.940  64.089  14.842  1.00  0.00    +0.015 C 
ATOM     29  C   UNL     1      44.469  62.650  14.603  1.00  0.00    +0.010 C 
ATOM     30  C   UNL     1      43.972  65.053  14.146  1.00  0.00    +0.010 C 
ENDBRANCH  27  28
BRANCH  27  31
ATOM     31  C   UNL     1      46.437  64.968  16.726  1.00  0.00    +0.240 C 
ATOM     32  O   UNL     1      46.629  66.103  17.156  1.00  0.00    -0.273 OA
ATOM     33  N   UNL     1      47.487  64.139  16.433  1.00  0.00    -0.368 N 
ATOM     34  H   UNL     1      47.350  63.403  15.739  1.00  0.00    +0.159 HD
ATOM     35  H   UNL     1      48.416  64.529  16.503  1.00  0.00    +0.159 HD
ENDBRANCH  27  31
ENDBRANCH  25  27
ENDBRANCH   1  23
TORSDOF 11
ENDMDL
MODEL 5
REMARK VINA RESULT:    -6.295      6.764      9.772
REMARK INTER + INTRA:         -12.610
REMARK INTER:                 -11.432
REMARK INTRA:                  -1.178
REMARK UNBOUND:                -2.266
REMARK SMILES Cc1ccc(S(=O)(=O)N[C@H](CSCc2ccccc2)C(=O)N[C@@H](C(N)=O)C(C)C)cc1
REMARK SMILES IDX 10 1 9 2 6 4 7 5 8 6 5 7 2 8 3 9 31 10 4 11 30 12 1 13 11 14
REMARK SMILES IDX 12 15 13 16 14 17 15 18 19 19 16 20 18 21 17 22 20 23 21 24
REMARK SMILES IDX 22 25 23 27 27 28 28 29 29 30 24 31 26 32 25 33
REMARK H PARENT 9 3 22 26 25 34 25 35
ROOT
ATOM      1  C   UNL     1      46.092  60.012  17.638  1.00  0.00    +0.168 C 
ENDROOT
BRANCH   1   2
ATOM      2  N   UNL     1      46.283  61.476  17.765  1.00  0.00    -0.198 NA
ATOM      3  H   UNL     1      46.151  61.983  16.882  1.00  0.00    +0.142 HD
BRANCH   2   4
ATOM      4  S   UNL     1      45.460  62.244  19.015  1.00  0.00    +0.241 S 
ATOM      5  O   UNL     1      46.425  62.753  19.963  1.00  0.00    -0.207 OA
ATOM      6  O   UNL     1      44.373  61.374  19.402  1.00  0.00    -0.207 OA
BRANCH   4   7
ATOM      7  C   UNL     1      44.749  63.622  18.148  1.00  0.00    +0.082 A 
ATOM      8  C   UNL     1      43.624  65.765  16.752  1.00  0.00    -0.051 A 
ATOM      9  C   UNL     1      43.136  65.409  18.017  1.00  0.00    +0.005 A 
ATOM     10  C   UNL     1      44.690  65.043  16.199  1.00  0.00    +0.005 A 
ATOM     11  C   UNL     1      43.689  64.333  18.714  1.00  0.00    +0.022 A 
ATOM     12  C   UNL     1      45.250  63.967  16.891  1.00  0.00    +0.022 A 
ATOM     13  C   UNL     1      43.038  66.938  16.020  1.00  0.00    +0.044 C 
ENDBRANCH   4   7
ENDBRANCH   2   4
ENDBRANCH   1   2
BRANCH   1  14
ATOM     14  C   UNL     1      47.364  59.269  18.075  1.00  0.00    +0.100 C 
BRANCH  14  15
ATOM     15  S   UNL     1      47.551  59.100  19.889  1.00  0.00    -0.155 SA
BRANCH  15  16
ATOM     16  C   UNL     1      47.588  57.285  19.986  1.00  0.00    +0.105 C 
BRANCH  16  17
ATOM     17  C   UNL     1      48.847  56.784  20.641  1.00  0.00    -0.038 A 
ATOM     18  C   UNL     1      49.347  55.508  20.342  1.00  0.00    +0.004 A 
ATOM     19  C   UNL     1      49.534  57.578  21.572  1.00  0.00    +0.004 A 
ATOM     20  C   UNL     1      50.517  55.047  20.946  1.00  0.00    +0.000 A 
ATOM     21  C   UNL     1      50.704  57.114  22.175  1.00  0.00    +0.000 A 
ATOM     22  C   UNL     1      51.197  55.850  21.860  1.00  0.00    +0.000 A 
ENDBRANCH  16  17
ENDBRANCH  15  16
ENDBRANCH  14  15
ENDBRANCH   1  14
BRANCH   1  23
ATOM     23  C   UNL     1      45.701  59.653  16.198  1.00  0.00    +0.239 C 
ATOM     24  O   UNL     1      45.301  60.491  15.388  1.00  0.00    -0.273 OA
ATOM     25  N   UNL     1      45.859  58.323  15.863  1.00  0.00    -0.343 N 
ATOM     26  H   UNL     1      46.443  57.731  16.438  1.00  0.00    +0.164 HD
BRANCH  25  27
ATOM     27  C   UNL     1      45.593  57.856  14.499  1.00  0.00    +0.173 C 
BRANCH  27  28
ATOM     28  C   UNL     1      44.399  56.877  14.469  1.00  0.00    +0.015 C 
ATOM     29  C   UNL     1      43.109  57.551  14.948  1.00  0.00    +0.010 C 
ATOM     30  C   UNL     1      44.177  56.322  13.058  1.00  0.00    +0.010 C 
ENDBRANCH  27  28
BRANCH  27  31
ATOM     31  C   UNL     1      46.906  57.186  14.038  1.00  0.00    +0.240 C 
ATOM     32  O   UNL     1      47.455  57.409  12.963  1.00  0.00    -0.273 OA
ATOM     33  N   UNL     1      47.373  56.211  14.878  1.00  0.00    -0.368 N 
ATOM     34  H   UNL     1      46.722  55.776  15.533  1.00  0.00    +0.159 HD
ATOM     35  H   UNL     1      48.127  55.631  14.538  1.00  0.00    +0.159 HD
ENDBRANCH  27  31
ENDBRANCH  25  27
ENDBRANCH   1  23
TORSDOF 11
ENDMDL
