MODEL 1
REMARK VINA RESULT:    -8.527      0.000      0.000
REMARK INTER + INTRA:         -14.378
REMARK INTER:                 -13.014
REMARK INTRA:                  -1.364
REMARK UNBOUND:                -1.364
REMARK SMILES CCc1[nH]c(C(=O)O[C@H](C)C(=O)Nc2sccc2C(N)=O)c(C)c1C(=O)OC
REMARK SMILES IDX 8 1 6 2 7 3 5 4 3 5 24 6 4 7 22 8 23 10 2 11 1 12 25 13
REMARK SMILES IDX 26 14 27 15 28 16 9 17 10 18 11 19 12 20 13 21 14 23 18 24
REMARK SMILES IDX 15 25 17 26 16 27 19 28 21 29 20 30
REMARK H PARENT 4 9 13 22 20 31 20 32
ROOT
ATOM      1  O   UNL     1      51.397  52.595  18.241  1.00  0.00    -0.448 OA
ENDROOT
BRANCH   1   2
ATOM      2  C   UNL     1      51.670  51.291  17.973  1.00  0.00    +0.355 C 
ATOM      3  O   UNL     1      52.794  50.810  17.955  1.00  0.00    -0.244 OA
BRANCH   2   4
ATOM      4  C   UNL     1      50.425  50.597  17.715  1.00  0.00    +0.129 A 
ATOM      5  C   UNL     1      48.554  50.038  16.570  1.00  0.00    +0.030 A 
ATOM      6  C   UNL     1      48.562  49.253  17.720  1.00  0.00    +0.084 A 
ATOM      7  N   UNL     1      49.670  50.831  16.589  1.00  0.00    -0.352 N 
ATOM      8  C   UNL     1      49.757  49.623  18.454  1.00  0.00    -0.004 A 
ATOM      9  H   UNL     1      49.933  51.497  15.871  1.00  0.00    +0.166 HD
ATOM     10  C   UNL     1      50.188  49.059  19.769  1.00  0.00    +0.048 C 
BRANCH   5  11
ATOM     11  C   UNL     1      47.593  50.117  15.425  1.00  0.00    +0.051 C 
ATOM     12  C   UNL     1      48.239  49.680  14.119  1.00  0.00    +0.010 C 
ENDBRANCH   5  11
BRANCH   6  13
ATOM     13  C   UNL     1      47.529  48.264  18.061  1.00  0.00    +0.339 C 
ATOM     14  O   UNL     1      46.713  48.415  18.963  1.00  0.00    -0.246 OA
BRANCH  13  15
ATOM     15  O   UNL     1      47.566  47.157  17.262  1.00  0.00    -0.465 OA
ATOM     16  C   UNL     1      46.336  46.874  16.597  1.00  0.00    +0.282 C 
ENDBRANCH  13  15
ENDBRANCH   6  13
ENDBRANCH   2   4
ENDBRANCH   1   2
BRANCH   1  17
ATOM     17  C   UNL     1      52.154  53.201  19.298  1.00  0.00    +0.262 C 
ATOM     18  C   UNL     1      51.930  52.417  20.587  1.00  0.00    +0.064 C 
BRANCH  17  19
ATOM     19  C   UNL     1      51.667  54.656  19.456  1.00  0.00    +0.265 C 
ATOM     20  O   UNL     1      52.203  55.575  18.843  1.00  0.00    -0.270 OA
ATOM     21  N   UNL     1      50.616  54.759  20.354  1.00  0.00    -0.314 N 
ATOM     22  H   UNL     1      50.301  53.912  20.829  1.00  0.00    +0.170 HD
BRANCH  21  23
ATOM     23  C   UNL     1      49.920  55.903  20.723  1.00  0.00    +0.108 A 
ATOM     24  C   UNL     1      50.365  56.865  21.622  1.00  0.00    +0.074 A 
ATOM     25  S   UNL     1      48.383  56.256  20.094  1.00  0.00    -0.126 S 
ATOM     26  C   UNL     1      49.380  57.904  21.774  1.00  0.00    +0.028 A 
ATOM     27  C   UNL     1      48.262  57.692  21.000  1.00  0.00    +0.068 A 
BRANCH  24  28
ATOM     28  C   UNL     1      51.665  56.759  22.285  1.00  0.00    +0.251 C 
ATOM     29  O   UNL     1      52.029  55.747  22.880  1.00  0.00    -0.269 OA
ATOM     30  N   UNL     1      52.488  57.844  22.207  1.00  0.00    -0.366 N 
ATOM     31  H   UNL     1      53.411  57.753  22.611  1.00  0.00    +0.159 HD
ATOM     32  H   UNL     1      52.294  58.655  21.641  1.00  0.00    +0.159 HD
ENDBRANCH  24  28
ENDBRANCH  21  23
ENDBRANCH  17  19
ENDBRANCH   1  17
TORSDOF 9
ENDMDL
MODEL 2
REMARK VINA RESULT:    -8.292      1.505      2.190
REMARK INTER + INTRA:         -14.020
REMARK INTER:                 -12.754
REMARK INTRA:                  -1.266
REMARK UNBOUND:                -1.364
REMARK SMILES CCc1[nH]c(C(=O)O[C@H](C)C(=O)Nc2sccc2C(N)=O)c(C)c1C(=O)OC
REMARK SMILES IDX 8 1 6 2 7 3 5 4 3 5 24 6 4 7 22 8 23 10 2 11 1 12 25 13
REMARK SMILES IDX 26 14 27 15 28 16 9 17 10 18 11 19 12 20 13 21 14 23 18 24
REMARK SMILES IDX 15 25 17 26 16 27 19 28 21 29 20 30
REMARK H PARENT 4 9 13 22 20 31 20 32
ROOT
ATOM      1  O   UNL     1      51.119  51.405  19.190  1.00  0.00    -0.448 OA
ENDROOT
BRANCH   1   2
ATOM      2  C   UNL     1      51.429  51.020  17.923  1.00  0.00    +0.355 C 
ATOM      3  O   UNL     1      52.549  51.085  17.436  1.00  0.00    -0.244 OA
BRANCH   2   4
ATOM      4  C   UNL     1      50.227  50.539  17.274  1.00  0.00    +0.129 A 
ATOM      5  C   UNL     1      48.035  50.004  17.089  1.00  0.00    +0.030 A 
ATOM      6  C   UNL     1      48.610  49.749  15.847  1.00  0.00    +0.084 A 
ATOM      7  N   UNL     1      49.015  50.472  17.923  1.00  0.00    -0.352 N 
ATOM      8  C   UNL     1      50.016  50.083  15.975  1.00  0.00    -0.004 A 
ATOM      9  H   UNL     1      48.884  50.752  18.888  1.00  0.00    +0.166 HD
ATOM     10  C   UNL     1      51.048  49.957  14.902  1.00  0.00    +0.048 C 
BRANCH   5  11
ATOM     11  C   UNL     1      46.629  49.862  17.584  1.00  0.00    +0.051 C 
ATOM     12  C   UNL     1      46.439  48.570  18.364  1.00  0.00    +0.010 C 
ENDBRANCH   5  11
BRANCH   6  13
ATOM     13  C   UNL     1      47.878  49.238  14.679  1.00  0.00    +0.339 C 
ATOM     14  O   UNL     1      47.819  49.823  13.602  1.00  0.00    -0.246 OA
BRANCH  13  15
ATOM     15  O   UNL     1      47.271  48.037  14.912  1.00  0.00    -0.465 OA
ATOM     16  C   UNL     1      46.006  47.886  14.269  1.00  0.00    +0.282 C 
ENDBRANCH  13  15
ENDBRANCH   6  13
ENDBRANCH   2   4
ENDBRANCH   1   2
BRANCH   1  17
ATOM     17  C   UNL     1      52.065  52.262  19.845  1.00  0.00    +0.262 C 
ATOM     18  C   UNL     1      52.120  51.907  21.327  1.00  0.00    +0.064 C 
BRANCH  17  19
ATOM     19  C   UNL     1      51.596  53.719  19.653  1.00  0.00    +0.265 C 
ATOM     20  O   UNL     1      52.045  54.415  18.746  1.00  0.00    -0.270 OA
ATOM     21  N   UNL     1      50.671  54.100  20.612  1.00  0.00    -0.314 N 
ATOM     22  H   UNL     1      50.424  53.426  21.339  1.00  0.00    +0.170 HD
BRANCH  21  23
ATOM     23  C   UNL     1      50.024  55.322  20.733  1.00  0.00    +0.108 A 
ATOM     24  C   UNL     1      50.433  56.376  21.543  1.00  0.00    +0.074 A 
ATOM     25  S   UNL     1      48.600  55.670  19.877  1.00  0.00    -0.126 S 
ATOM     26  C   UNL     1      49.517  57.481  21.430  1.00  0.00    +0.028 A 
ATOM     27  C   UNL     1      48.483  57.225  20.558  1.00  0.00    +0.068 A 
BRANCH  24  28
ATOM     28  C   UNL     1      51.637  56.291  22.370  1.00  0.00    +0.251 C 
ATOM     29  O   UNL     1      51.908  55.306  23.053  1.00  0.00    -0.269 OA
ATOM     30  N   UNL     1      52.479  57.365  22.346  1.00  0.00    -0.366 N 
ATOM     31  H   UNL     1      53.342  57.285  22.869  1.00  0.00    +0.159 HD
ATOM     32  H   UNL     1      52.370  58.148  21.723  1.00  0.00    +0.159 HD
ENDBRANCH  24  28
ENDBRANCH  21  23
ENDBRANCH  17  19
ENDBRANCH   1  17
TORSDOF 9
ENDMDL
MODEL 3
REMARK VINA RESULT:    -8.213      1.759      2.696
REMARK INTER + INTRA:         -13.898
REMARK INTER:                 -12.362
REMARK INTRA:                  -1.537
REMARK UNBOUND:                -1.364
REMARK SMILES CCc1[nH]c(C(=O)O[C@H](C)C(=O)Nc2sccc2C(N)=O)c(C)c1C(=O)OC
REMARK SMILES IDX 8 1 6 2 7 3 5 4 3 5 24 6 4 7 22 8 23 10 2 11 1 12 25 13
REMARK SMILES IDX 26 14 27 15 28 16 9 17 10 18 11 19 12 20 13 21 14 23 18 24
REMARK SMILES IDX 15 25 17 26 16 27 19 28 21 29 20 30
REMARK H PARENT 4 9 13 22 20 31 20 32
ROOT
ATOM      1  O   UNL     1      52.140  52.752  19.898  1.00  0.00    -0.448 OA
ENDROOT
BRANCH   1   2
ATOM      2  C   UNL     1      52.244  51.397  19.938  1.00  0.00    +0.355 C 
ATOM      3  O   UNL     1      53.131  50.789  20.522  1.00  0.00    -0.244 OA
BRANCH   2   4
ATOM      4  C   UNL     1      51.151  50.823  19.181  1.00  0.00    +0.129 A 
ATOM      5  C   UNL     1      49.712  50.600  17.448  1.00  0.00    +0.030 A 
ATOM      6  C   UNL     1      49.413  49.577  18.343  1.00  0.00    +0.084 A 
ATOM      7  N   UNL     1      50.748  51.330  17.968  1.00  0.00    -0.352 N 
ATOM      8  C   UNL     1      50.331  49.731  19.456  1.00  0.00    -0.004 A 
ATOM      9  H   UNL     1      51.185  52.131  17.526  1.00  0.00    +0.166 HD
ATOM     10  C   UNL     1      50.381  48.870  20.676  1.00  0.00    +0.048 C 
BRANCH   5  11
ATOM     11  C   UNL     1      49.121  50.969  16.122  1.00  0.00    +0.051 C 
ATOM     12  C   UNL     1      47.862  51.806  16.284  1.00  0.00    +0.010 C 
ENDBRANCH   5  11
BRANCH   6  13
ATOM     13  C   UNL     1      48.359  48.572  18.138  1.00  0.00    +0.339 C 
ATOM     14  O   UNL     1      48.533  47.512  17.547  1.00  0.00    -0.246 OA
BRANCH  13  15
ATOM     15  O   UNL     1      47.160  48.938  18.682  1.00  0.00    -0.465 OA
ATOM     16  C   UNL     1      46.181  47.901  18.690  1.00  0.00    +0.282 C 
ENDBRANCH  13  15
ENDBRANCH   6  13
ENDBRANCH   2   4
ENDBRANCH   1   2
BRANCH   1  17
ATOM     17  C   UNL     1      51.975  53.416  21.159  1.00  0.00    +0.262 C 
ATOM     18  C   UNL     1      50.934  52.670  21.986  1.00  0.00    +0.064 C 
BRANCH  17  19
ATOM     19  C   UNL     1      51.512  54.859  20.877  1.00  0.00    +0.265 C 
ATOM     20  O   UNL     1      52.310  55.794  20.879  1.00  0.00    -0.270 OA
ATOM     21  N   UNL     1      50.146  54.936  20.658  1.00  0.00    -0.314 N 
ATOM     22  H   UNL     1      49.596  54.078  20.734  1.00  0.00    +0.170 HD
BRANCH  21  23
ATOM     23  C   UNL     1      49.393  56.062  20.355  1.00  0.00    +0.108 A 
ATOM     24  C   UNL     1      48.739  56.297  19.151  1.00  0.00    +0.074 A 
ATOM     25  S   UNL     1      49.189  57.328  21.468  1.00  0.00    -0.126 S 
ATOM     26  C   UNL     1      48.068  57.570  19.184  1.00  0.00    +0.028 A 
ATOM     27  C   UNL     1      48.233  58.226  20.383  1.00  0.00    +0.068 A 
BRANCH  24  28
ATOM     28  C   UNL     1      48.782  55.336  18.049  1.00  0.00    +0.251 C 
ATOM     29  O   UNL     1      49.176  54.180  18.188  1.00  0.00    -0.269 OA
ATOM     30  N   UNL     1      48.346  55.772  16.832  1.00  0.00    -0.366 N 
ATOM     31  H   UNL     1      48.318  55.093  16.082  1.00  0.00    +0.159 HD
ATOM     32  H   UNL     1      47.909  56.667  16.682  1.00  0.00    +0.159 HD
ENDBRANCH  24  28
ENDBRANCH  21  23
ENDBRANCH  17  19
ENDBRANCH   1  17
TORSDOF 9
ENDMDL
MODEL 4
REMARK VINA RESULT:    -7.937      1.822      2.471
REMARK INTER + INTRA:         -13.477
REMARK INTER:                 -12.368
REMARK INTRA:                  -1.109
REMARK UNBOUND:                -1.364
REMARK SMILES CCc1[nH]c(C(=O)O[C@H](C)C(=O)Nc2sccc2C(N)=O)c(C)c1C(=O)OC
REMARK SMILES IDX 8 1 6 2 7 3 5 4 3 5 24 6 4 7 22 8 23 10 2 11 1 12 25 13
REMARK SMILES IDX 26 14 27 15 28 16 9 17 10 18 11 19 12 20 13 21 14 23 18 24
REMARK SMILES IDX 15 25 17 26 16 27 19 28 21 29 20 30
REMARK H PARENT 4 9 13 22 20 31 20 32
ROOT
ATOM      1  O   UNL     1      50.125  51.855  18.971  1.00  0.00    -0.448 OA
ENDROOT
BRANCH   1   2
ATOM      2  C   UNL     1      49.246  52.323  18.045  1.00  0.00    +0.355 C 
ATOM      3  O   UNL     1      48.712  53.422  18.095  1.00  0.00    -0.244 OA
BRANCH   2   4
ATOM      4  C   UNL     1      49.060  51.312  17.025  1.00  0.00    +0.129 A 
ATOM      5  C   UNL     1      49.648  49.945  15.320  1.00  0.00    +0.030 A 
ATOM      6  C   UNL     1      48.314  49.669  15.605  1.00  0.00    +0.084 A 
ATOM      7  N   UNL     1      50.071  50.926  16.176  1.00  0.00    -0.352 N 
ATOM      8  C   UNL     1      47.940  50.555  16.690  1.00  0.00    -0.004 A 
ATOM      9  H   UNL     1      51.005  51.320  16.207  1.00  0.00    +0.166 HD
ATOM     10  C   UNL     1      46.592  50.638  17.330  1.00  0.00    +0.048 C 
BRANCH   5  11
ATOM     11  C   UNL     1      50.593  49.365  14.312  1.00  0.00    +0.051 C 
ATOM     12  C   UNL     1      52.020  49.832  14.550  1.00  0.00    +0.010 C 
ENDBRANCH   5  11
BRANCH   6  13
ATOM     13  C   UNL     1      47.502  48.665  14.901  1.00  0.00    +0.339 C 
ATOM     14  O   UNL     1      47.048  48.824  13.773  1.00  0.00    -0.246 OA
BRANCH  13  15
ATOM     15  O   UNL     1      47.310  47.527  15.632  1.00  0.00    -0.465 OA
ATOM     16  C   UNL     1      45.993  46.986  15.536  1.00  0.00    +0.282 C 
ENDBRANCH  13  15
ENDBRANCH   6  13
ENDBRANCH   2   4
ENDBRANCH   1   2
BRANCH   1  17
ATOM     17  C   UNL     1      51.162  52.758  19.381  1.00  0.00    +0.262 C 
ATOM     18  C   UNL     1      52.316  51.959  19.974  1.00  0.00    +0.064 C 
BRANCH  17  19
ATOM     19  C   UNL     1      50.567  53.716  20.432  1.00  0.00    +0.265 C 
ATOM     20  O   UNL     1      50.322  53.333  21.573  1.00  0.00    -0.270 OA
ATOM     21  N   UNL     1      50.348  54.984  19.917  1.00  0.00    -0.314 N 
ATOM     22  H   UNL     1      50.557  55.148  18.931  1.00  0.00    +0.170 HD
BRANCH  21  23
ATOM     23  C   UNL     1      49.848  56.098  20.579  1.00  0.00    +0.108 A 
ATOM     24  C   UNL     1      50.480  56.770  21.618  1.00  0.00    +0.074 A 
ATOM     25  S   UNL     1      48.345  56.778  20.177  1.00  0.00    -0.126 S 
ATOM     26  C   UNL     1      49.667  57.868  22.073  1.00  0.00    +0.028 A 
ATOM     27  C   UNL     1      48.487  57.980  21.373  1.00  0.00    +0.068 A 
BRANCH  24  28
ATOM     28  C   UNL     1      51.786  56.353  22.127  1.00  0.00    +0.251 C 
ATOM     29  O   UNL     1      52.835  56.563  21.521  1.00  0.00    -0.269 OA
ATOM     30  N   UNL     1      51.804  55.718  23.334  1.00  0.00    -0.366 N 
ATOM     31  H   UNL     1      52.711  55.481  23.717  1.00  0.00    +0.159 HD
ATOM     32  H   UNL     1      50.996  55.618  23.927  1.00  0.00    +0.159 HD
ENDBRANCH  24  28
ENDBRANCH  21  23
ENDBRANCH  17  19
ENDBRANCH   1  17
TORSDOF 9
ENDMDL
MODEL 5
REMARK VINA RESULT:    -7.638      2.578      8.157
REMARK INTER + INTRA:         -13.021
REMARK INTER:                 -11.973
REMARK INTRA:                  -1.048
REMARK UNBOUND:                -1.364
REMARK SMILES CCc1[nH]c(C(=O)O[C@H](C)C(=O)Nc2sccc2C(N)=O)c(C)c1C(=O)OC
REMARK SMILES IDX 8 1 6 2 7 3 5 4 3 5 24 6 4 7 22 8 23 10 2 11 1 12 25 13
REMARK SMILES IDX 26 14 27 15 28 16 9 17 10 18 11 19 12 20 13 21 14 23 18 24
REMARK SMILES IDX 15 25 17 26 16 27 19 28 21 29 20 30
REMARK H PARENT 4 9 13 22 20 31 20 32
ROOT
ATOM      1  O   UNL     1      50.301  51.161  18.083  1.00  0.00    -0.448 OA
ENDROOT
BRANCH   1   2
ATOM      2  C   UNL     1      49.706  52.309  17.664  1.00  0.00    +0.355 C 
ATOM      3  O   UNL     1      48.977  52.391  16.686  1.00  0.00    -0.244 OA
BRANCH   2   4
ATOM      4  C   UNL     1      50.086  53.384  18.557  1.00  0.00    +0.129 A 
ATOM      5  C   UNL     1      49.776  55.172  19.909  1.00  0.00    +0.030 A 
ATOM      6  C   UNL     1      51.139  54.891  19.934  1.00  0.00    +0.084 A 
ATOM      7  N   UNL     1      49.170  54.265  19.083  1.00  0.00    -0.352 N 
ATOM      8  C   UNL     1      51.333  53.752  19.058  1.00  0.00    -0.004 A 
ATOM      9  H   UNL     1      48.177  54.221  18.882  1.00  0.00    +0.166 HD
ATOM     10  C   UNL     1      52.639  53.094  18.750  1.00  0.00    +0.048 C 
BRANCH   5  11
ATOM     11  C   UNL     1      48.963  56.222  20.603  1.00  0.00    +0.051 C 
ATOM     12  C   UNL     1      48.064  56.967  19.629  1.00  0.00    +0.010 C 
ENDBRANCH   5  11
BRANCH   6  13
ATOM     13  C   UNL     1      52.132  55.643  20.715  1.00  0.00    +0.339 C 
ATOM     14  O   UNL     1      52.933  56.430  20.223  1.00  0.00    -0.246 OA
BRANCH  13  15
ATOM     15  O   UNL     1      52.066  55.381  22.054  1.00  0.00    -0.465 OA
ATOM     16  C   UNL     1      51.635  54.058  22.371  1.00  0.00    +0.282 C 
ENDBRANCH  13  15
ENDBRANCH   6  13
ENDBRANCH   2   4
ENDBRANCH   1   2
BRANCH   1  17
ATOM     17  C   UNL     1      49.571  50.374  19.035  1.00  0.00    +0.262 C 
ATOM     18  C   UNL     1      50.548  49.753  20.026  1.00  0.00    +0.064 C 
BRANCH  17  19
ATOM     19  C   UNL     1      48.812  49.278  18.260  1.00  0.00    +0.265 C 
ATOM     20  O   UNL     1      49.161  48.102  18.319  1.00  0.00    -0.270 OA
ATOM     21  N   UNL     1      47.760  49.795  17.520  1.00  0.00    -0.314 N 
ATOM     22  H   UNL     1      47.614  50.806  17.529  1.00  0.00    +0.170 HD
BRANCH  21  23
ATOM     23  C   UNL     1      46.856  49.103  16.726  1.00  0.00    +0.108 A 
ATOM     24  C   UNL     1      47.028  48.805  15.379  1.00  0.00    +0.074 A 
ATOM     25  S   UNL     1      45.380  48.531  17.340  1.00  0.00    -0.126 S 
ATOM     26  C   UNL     1      45.885  48.089  14.874  1.00  0.00    +0.028 A 
ATOM     27  C   UNL     1      44.924  47.877  15.837  1.00  0.00    +0.068 A 
BRANCH  24  28
ATOM     28  C   UNL     1      48.229  49.205  14.647  1.00  0.00    +0.251 C 
ATOM     29  O   UNL     1      49.361  48.877  14.996  1.00  0.00    -0.269 OA
ATOM     30  N   UNL     1      48.046  49.962  13.527  1.00  0.00    -0.366 N 
ATOM     31  H   UNL     1      48.870  50.189  12.985  1.00  0.00    +0.159 HD
ATOM     32  H   UNL     1      47.143  50.166  13.130  1.00  0.00    +0.159 HD
ENDBRANCH  24  28
ENDBRANCH  21  23
ENDBRANCH  17  19
ENDBRANCH   1  17
TORSDOF 9
ENDMDL
