MODEL 1
REMARK VINA RESULT:    -7.636      0.000      0.000
REMARK INTER + INTRA:         -10.937
REMARK INTER:                 -10.314
REMARK INTRA:                  -0.623
REMARK UNBOUND:                -0.623
REMARK SMILES C=CCNC(=S)NNC(=O)[C@H](C)Oc1ccc(C)cc1
REMARK SMILES IDX 9 1 10 2 8 3 11 5 12 6 13 7 14 8 17 9 16 10 19 11 15 12
REMARK SMILES IDX 20 13 18 14 7 15 5 16 6 17 4 18 3 21 2 22 1 23
REMARK H PARENT 8 4 7 19 4 20
ROOT
ATOM      1  C   UNL     1      51.349  51.632  20.809  1.00  0.00    +0.279 C 
ATOM      2  O   UNL     1      52.106  51.656  21.778  1.00  0.00    -0.269 OA
ATOM      3  N   UNL     1      50.684  52.771  20.377  1.00  0.00    -0.265 N 
ATOM      4  H   UNL     1      49.867  52.715  19.771  1.00  0.00    +0.191 HD
ENDROOT
BRANCH   1   5
ATOM      5  C   UNL     1      51.062  50.384  19.952  1.00  0.00    +0.260 C 
ATOM      6  C   UNL     1      52.384  49.675  19.666  1.00  0.00    +0.064 C 
BRANCH   5   7
ATOM      7  O   UNL     1      50.478  50.674  18.688  1.00  0.00    -0.481 OA
BRANCH   7   8
ATOM      8  C   UNL     1      49.229  50.186  18.423  1.00  0.00    +0.120 A 
ATOM      9  C   UNL     1      46.616  49.421  17.700  1.00  0.00    -0.051 A 
ATOM     10  C   UNL     1      47.165  50.612  17.213  1.00  0.00    +0.007 A 
ATOM     11  C   UNL     1      47.375  48.634  18.572  1.00  0.00    +0.007 A 
ATOM     12  C   UNL     1      48.462  50.986  17.573  1.00  0.00    +0.047 A 
ATOM     13  C   UNL     1      48.675  49.012  18.930  1.00  0.00    +0.047 A 
ATOM     14  C   UNL     1      45.211  49.032  17.348  1.00  0.00    +0.044 C 
ENDBRANCH   7   8
ENDBRANCH   5   7
ENDBRANCH   1   5
BRANCH   3  15
ATOM     15  N   UNL     1      50.730  53.893  21.230  1.00  0.00    -0.274 N 
ATOM     16  C   UNL     1      50.667  55.175  20.700  1.00  0.00    +0.185 C 
ATOM     17  S   UNL     1      50.871  55.509  19.069  1.00  0.00    -0.039 S 
ATOM     18  N   UNL     1      50.484  56.118  21.691  1.00  0.00    -0.358 N 
ATOM     19  H   UNL     1      50.345  53.714  22.156  1.00  0.00    +0.190 HD
ATOM     20  H   UNL     1      50.150  55.771  22.577  1.00  0.00    +0.163 HD
BRANCH  18  21
ATOM     21  C   UNL     1      50.287  57.540  21.474  1.00  0.00    +0.142 C 
BRANCH  21  22
ATOM     22  C   UNL     1      48.847  57.912  21.661  1.00  0.00    -0.014 C 
ATOM     23  C   UNL     1      47.869  57.889  20.741  1.00  0.00    +0.006 C 
ENDBRANCH  21  22
ENDBRANCH  18  21
ENDBRANCH   3  15
TORSDOF 6
ENDMDL
MODEL 2
REMARK VINA RESULT:    -7.239      2.869      7.141
REMARK INTER + INTRA:         -10.402
REMARK INTER:                  -9.936
REMARK INTRA:                  -0.466
REMARK UNBOUND:                -0.623
REMARK SMILES C=CCNC(=S)NNC(=O)[C@H](C)Oc1ccc(C)cc1
REMARK SMILES IDX 9 1 10 2 8 3 11 5 12 6 13 7 14 8 17 9 16 10 19 11 15 12
REMARK SMILES IDX 20 13 18 14 7 15 5 16 6 17 4 18 3 21 2 22 1 23
REMARK H PARENT 8 4 7 19 4 20
ROOT
ATOM      1  C   UNL     1      50.497  52.560  17.999  1.00  0.00    +0.279 C 
ATOM      2  O   UNL     1      49.359  52.812  17.605  1.00  0.00    -0.269 OA
ATOM      3  N   UNL     1      51.137  51.375  17.666  1.00  0.00    -0.265 N 
ATOM      4  H   UNL     1      51.941  51.035  18.191  1.00  0.00    +0.191 HD
ENDROOT
BRANCH   1   5
ATOM      5  C   UNL     1      51.352  53.504  18.865  1.00  0.00    +0.260 C 
ATOM      6  C   UNL     1      52.741  52.890  19.033  1.00  0.00    +0.064 C 
BRANCH   5   7
ATOM      7  O   UNL     1      50.839  53.706  20.177  1.00  0.00    -0.481 OA
BRANCH   7   8
ATOM      8  C   UNL     1      50.128  54.847  20.427  1.00  0.00    +0.120 A 
ATOM      9  C   UNL     1      48.897  57.285  21.114  1.00  0.00    -0.051 A 
ATOM     10  C   UNL     1      50.148  56.952  21.640  1.00  0.00    +0.007 A 
ATOM     11  C   UNL     1      48.257  56.376  20.265  1.00  0.00    +0.007 A 
ATOM     12  C   UNL     1      50.756  55.743  21.296  1.00  0.00    +0.047 A 
ATOM     13  C   UNL     1      48.870  55.166  19.920  1.00  0.00    +0.047 A 
ATOM     14  C   UNL     1      48.221  58.565  21.509  1.00  0.00    +0.044 C 
ENDBRANCH   7   8
ENDBRANCH   5   7
ENDBRANCH   1   5
BRANCH   3  15
ATOM     15  N   UNL     1      50.347  50.378  17.057  1.00  0.00    -0.274 N 
ATOM     16  C   UNL     1      49.642  49.472  17.839  1.00  0.00    +0.185 C 
ATOM     17  S   UNL     1      49.917  49.261  19.479  1.00  0.00    -0.039 S 
ATOM     18  N   UNL     1      48.752  48.742  17.078  1.00  0.00    -0.358 N 
ATOM     19  H   UNL     1      49.973  50.655  16.150  1.00  0.00    +0.190 HD
ATOM     20  H   UNL     1      48.525  49.123  16.172  1.00  0.00    +0.163 HD
BRANCH  18  21
ATOM     21  C   UNL     1      47.799  47.775  17.594  1.00  0.00    +0.142 C 
BRANCH  21  22
ATOM     22  C   UNL     1      46.584  48.465  18.139  1.00  0.00    -0.014 C 
ATOM     23  C   UNL     1      45.656  49.151  17.454  1.00  0.00    +0.006 C 
ENDBRANCH  21  22
ENDBRANCH  18  21
ENDBRANCH   3  15
TORSDOF 6
ENDMDL
MODEL 3
REMARK VINA RESULT:    -7.113      1.344      2.062
REMARK INTER + INTRA:         -10.232
REMARK INTER:                  -9.704
REMARK INTRA:                  -0.528
REMARK UNBOUND:                -0.623
REMARK SMILES C=CCNC(=S)NNC(=O)[C@H](C)Oc1ccc(C)cc1
REMARK SMILES IDX 9 1 10 2 8 3 11 5 12 6 13 7 14 8 17 9 16 10 19 11 15 12
REMARK SMILES IDX 20 13 18 14 7 15 5 16 6 17 4 18 3 21 2 22 1 23
REMARK H PARENT 8 4 7 19 4 20
ROOT
ATOM      1  C   UNL     1      51.683  51.764  20.167  1.00  0.00    +0.279 C 
ATOM      2  O   UNL     1      52.681  52.250  19.639  1.00  0.00    -0.269 OA
ATOM      3  N   UNL     1      50.984  52.435  21.160  1.00  0.00    -0.265 N 
ATOM      4  H   UNL     1      50.342  51.949  21.784  1.00  0.00    +0.191 HD
ENDROOT
BRANCH   1   5
ATOM      5  C   UNL     1      51.073  50.399  19.794  1.00  0.00    +0.260 C 
ATOM      6  C   UNL     1      52.133  49.318  19.999  1.00  0.00    +0.064 C 
BRANCH   5   7
ATOM      7  O   UNL     1      50.658  50.304  18.437  1.00  0.00    -0.481 OA
BRANCH   7   8
ATOM      8  C   UNL     1      49.336  50.069  18.178  1.00  0.00    +0.120 A 
ATOM      9  C   UNL     1      46.634  49.350  17.838  1.00  0.00    -0.051 A 
ATOM     10  C   UNL     1      47.468  48.595  18.668  1.00  0.00    +0.007 A 
ATOM     11  C   UNL     1      47.172  50.449  17.159  1.00  0.00    +0.007 A 
ATOM     12  C   UNL     1      48.806  48.956  18.835  1.00  0.00    +0.047 A 
ATOM     13  C   UNL     1      48.514  50.809  17.331  1.00  0.00    +0.047 A 
ATOM     14  C   UNL     1      45.205  48.946  17.623  1.00  0.00    +0.044 C 
ENDBRANCH   7   8
ENDBRANCH   5   7
ENDBRANCH   1   5
BRANCH   3  15
ATOM     15  N   UNL     1      51.597  53.586  21.699  1.00  0.00    -0.274 N 
ATOM     16  C   UNL     1      51.111  54.848  21.383  1.00  0.00    +0.185 C 
ATOM     17  S   UNL     1      50.034  55.134  20.130  1.00  0.00    -0.039 S 
ATOM     18  N   UNL     1      51.679  55.817  22.185  1.00  0.00    -0.358 N 
ATOM     19  H   UNL     1      52.027  53.427  22.609  1.00  0.00    +0.190 HD
ATOM     20  H   UNL     1      52.120  55.490  23.031  1.00  0.00    +0.163 HD
BRANCH  18  21
ATOM     21  C   UNL     1      51.327  57.225  22.179  1.00  0.00    +0.142 C 
BRANCH  21  22
ATOM     22  C   UNL     1      52.363  58.030  21.452  1.00  0.00    -0.014 C 
ATOM     23  C   UNL     1      53.689  58.040  21.663  1.00  0.00    +0.006 C 
ENDBRANCH  21  22
ENDBRANCH  18  21
ENDBRANCH   3  15
TORSDOF 6
ENDMDL
MODEL 4
REMARK VINA RESULT:    -6.887      3.012      7.412
REMARK INTER + INTRA:          -9.926
REMARK INTER:                  -9.251
REMARK INTRA:                  -0.676
REMARK UNBOUND:                -0.623
REMARK SMILES C=CCNC(=S)NNC(=O)[C@H](C)Oc1ccc(C)cc1
REMARK SMILES IDX 9 1 10 2 8 3 11 5 12 6 13 7 14 8 17 9 16 10 19 11 15 12
REMARK SMILES IDX 20 13 18 14 7 15 5 16 6 17 4 18 3 21 2 22 1 23
REMARK H PARENT 8 4 7 19 4 20
ROOT
ATOM      1  C   UNL     1      51.084  53.838  18.918  1.00  0.00    +0.279 C 
ATOM      2  O   UNL     1      52.073  53.340  18.381  1.00  0.00    -0.269 OA
ATOM      3  N   UNL     1      49.892  53.139  19.037  1.00  0.00    -0.265 N 
ATOM      4  H   UNL     1      49.009  53.615  19.221  1.00  0.00    +0.191 HD
ENDROOT
BRANCH   1   5
ATOM      5  C   UNL     1      51.041  55.249  19.534  1.00  0.00    +0.260 C 
ATOM      6  C   UNL     1      52.348  55.493  20.287  1.00  0.00    +0.064 C 
BRANCH   5   7
ATOM      7  O   UNL     1      49.992  55.434  20.478  1.00  0.00    -0.481 OA
BRANCH   7   8
ATOM      8  C   UNL     1      49.203  56.545  20.360  1.00  0.00    +0.120 A 
ATOM      9  C   UNL     1      47.532  58.750  19.831  1.00  0.00    -0.051 A 
ATOM     10  C   UNL     1      47.835  57.833  18.820  1.00  0.00    +0.007 A 
ATOM     11  C   UNL     1      48.095  58.568  21.099  1.00  0.00    +0.007 A 
ATOM     12  C   UNL     1      48.663  56.740  19.087  1.00  0.00    +0.047 A 
ATOM     13  C   UNL     1      48.923  57.471  21.364  1.00  0.00    +0.047 A 
ATOM     14  C   UNL     1      46.676  59.947  19.542  1.00  0.00    +0.044 C 
ENDBRANCH   7   8
ENDBRANCH   5   7
ENDBRANCH   1   5
BRANCH   3  15
ATOM     15  N   UNL     1      49.790  51.932  18.316  1.00  0.00    -0.274 N 
ATOM     16  C   UNL     1      49.013  51.869  17.166  1.00  0.00    +0.185 C 
ATOM     17  S   UNL     1      47.905  53.052  16.737  1.00  0.00    -0.039 S 
ATOM     18  N   UNL     1      49.231  50.692  16.479  1.00  0.00    -0.358 N 
ATOM     19  H   UNL     1      50.617  51.341  18.395  1.00  0.00    +0.190 HD
ATOM     20  H   UNL     1      50.074  50.190  16.715  1.00  0.00    +0.163 HD
BRANCH  18  21
ATOM     21  C   UNL     1      48.649  50.348  15.194  1.00  0.00    +0.142 C 
BRANCH  21  22
ATOM     22  C   UNL     1      49.636  49.602  14.346  1.00  0.00    -0.014 C 
ATOM     23  C   UNL     1      50.975  49.614  14.446  1.00  0.00    +0.006 C 
ENDBRANCH  21  22
ENDBRANCH  18  21
ENDBRANCH   3  15
TORSDOF 6
ENDMDL
MODEL 5
REMARK VINA RESULT:    -6.586      2.978      4.009
REMARK INTER + INTRA:          -9.519
REMARK INTER:                  -8.915
REMARK INTRA:                  -0.604
REMARK UNBOUND:                -0.623
REMARK SMILES C=CCNC(=S)NNC(=O)[C@H](C)Oc1ccc(C)cc1
REMARK SMILES IDX 9 1 10 2 8 3 11 5 12 6 13 7 14 8 17 9 16 10 19 11 15 12
REMARK SMILES IDX 20 13 18 14 7 15 5 16 6 17 4 18 3 21 2 22 1 23
REMARK H PARENT 8 4 7 19 4 20
ROOT
ATOM      1  C   UNL     1      49.983  55.882  20.427  1.00  0.00    +0.279 C 
ATOM      2  O   UNL     1      50.839  56.763  20.475  1.00  0.00    -0.269 OA
ATOM      3  N   UNL     1      48.632  56.185  20.323  1.00  0.00    -0.265 N 
ATOM      4  H   UNL     1      47.912  55.502  20.555  1.00  0.00    +0.191 HD
ENDROOT
BRANCH   1   5
ATOM      5  C   UNL     1      50.280  54.371  20.450  1.00  0.00    +0.260 C 
ATOM      6  C   UNL     1      51.456  54.118  21.391  1.00  0.00    +0.064 C 
BRANCH   5   7
ATOM      7  O   UNL     1      50.654  53.837  19.185  1.00  0.00    -0.481 OA
BRANCH   7   8
ATOM      8  C   UNL     1      49.860  52.875  18.627  1.00  0.00    +0.120 A 
ATOM      9  C   UNL     1      48.055  51.118  17.366  1.00  0.00    -0.051 A 
ATOM     10  C   UNL     1      47.859  52.501  17.300  1.00  0.00    +0.007 A 
ATOM     11  C   UNL     1      49.144  50.623  18.091  1.00  0.00    +0.007 A 
ATOM     12  C   UNL     1      48.757  53.368  17.924  1.00  0.00    +0.047 A 
ATOM     13  C   UNL     1      50.043  51.496  18.715  1.00  0.00    +0.047 A 
ATOM     14  C   UNL     1      47.073  50.179  16.729  1.00  0.00    +0.044 C 
ENDBRANCH   7   8
ENDBRANCH   5   7
ENDBRANCH   1   5
BRANCH   3  15
ATOM     15  N   UNL     1      48.269  57.535  20.508  1.00  0.00    -0.274 N 
ATOM     16  C   UNL     1      47.734  58.264  19.454  1.00  0.00    +0.185 C 
ATOM     17  S   UNL     1      47.787  57.752  17.858  1.00  0.00    -0.039 S 
ATOM     18  N   UNL     1      47.225  59.470  19.889  1.00  0.00    -0.358 N 
ATOM     19  H   UNL     1      47.985  57.750  21.463  1.00  0.00    +0.190 HD
ATOM     20  H   UNL     1      47.050  59.547  20.880  1.00  0.00    +0.163 HD
BRANCH  18  21
ATOM     21  C   UNL     1      46.517  60.432  19.063  1.00  0.00    +0.142 C 
BRANCH  21  22
ATOM     22  C   UNL     1      46.789  61.833  19.524  1.00  0.00    -0.014 C 
ATOM     23  C   UNL     1      45.895  62.807  19.752  1.00  0.00    +0.006 C 
ENDBRANCH  21  22
ENDBRANCH  18  21
ENDBRANCH   3  15
TORSDOF 6
ENDMDL
