MODEL 1
REMARK VINA RESULT:    -9.160      0.000      0.000
REMARK INTER + INTRA:         -14.668
REMARK INTER:                 -13.443
REMARK INTRA:                  -1.225
REMARK UNBOUND:                -1.225
REMARK SMILES CC(C)[NH+]1CCc2c(sc(NC(=O)c3ccc(S(=O)(=O)N(C)C[C@@H]4CCCO4)cc3)c2C(N)=O)C1
REMARK SMILES IDX 14 1 15 2 16 3 17 4 29 5 30 6 12 7 11 8 13 9 10 11 4 12 5 13
REMARK SMILES IDX 35 14 6 15 8 16 7 17 9 18 31 19 2 21 1 22 3 23 32 24 34 25
REMARK SMILES IDX 33 26 18 29 19 30 20 31 21 32 22 33 23 34 24 35 25 36 28 37
REMARK SMILES IDX 26 38 27 39
REMARK H PARENT 11 10 4 20 33 27 33 28
ROOT
ATOM      1  C   UNL     1      48.995  49.425  18.121  1.00  0.00    +0.040 A 
ATOM      2  C   UNL     1      49.702  48.805  19.158  1.00  0.00    +0.015 A 
ATOM      3  C   UNL     1      50.501  49.575  20.008  1.00  0.00    +0.022 A 
ATOM      4  C   UNL     1      50.595  50.957  19.801  1.00  0.00    +0.082 A 
ATOM      5  C   UNL     1      49.918  51.572  18.741  1.00  0.00    +0.022 A 
ATOM      6  C   UNL     1      49.105  50.805  17.906  1.00  0.00    +0.015 A 
ENDROOT
BRANCH   1   7
ATOM      7  C   UNL     1      48.152  48.600  17.222  1.00  0.00    +0.256 C 
ATOM      8  N   UNL     1      47.177  49.311  16.551  1.00  0.00    -0.313 N 
ATOM      9  O   UNL     1      48.309  47.385  17.187  1.00  0.00    -0.269 OA
ATOM     10  H   UNL     1      46.853  50.181  16.960  1.00  0.00    +0.171 HD
BRANCH   8  11
ATOM     11  C   UNL     1      46.379  48.725  15.595  1.00  0.00    +0.109 A 
ATOM     12  N   UNL     1      43.934  47.718  11.558  1.00  0.00    -0.328 N 
ATOM     13  C   UNL     1      43.444  46.578  12.472  1.00  0.00    +0.267 C 
ATOM     14  C   UNL     1      45.413  47.984  11.882  1.00  0.00    +0.310 C 
ATOM     15  C   UNL     1      43.468  46.978  13.959  1.00  0.00    +0.099 C 
ATOM     16  C   UNL     1      45.612  48.150  13.350  1.00  0.00    +0.065 A 
ATOM     17  C   UNL     1      44.734  47.705  14.319  1.00  0.00    -0.008 A 
ATOM     18  S   UNL     1      47.000  48.867  14.016  1.00  0.00    -0.116 S 
ATOM     19  C   UNL     1      45.193  48.022  15.647  1.00  0.00    +0.078 A 
ATOM     20  H   UNL     1      43.919  47.345  10.600  1.00  0.00    +0.348 HD
BRANCH  12  21
ATOM     21  C   UNL     1      43.057  48.978  11.557  1.00  0.00    +0.178 C 
ATOM     22  C   UNL     1      43.730  50.082  10.737  1.00  0.00    +0.075 C 
ATOM     23  C   UNL     1      41.692  48.672  10.939  1.00  0.00    +0.075 C 
ENDBRANCH  12  21
BRANCH  19  24
ATOM     24  C   UNL     1      44.552  47.551  16.864  1.00  0.00    +0.252 C 
ATOM     25  O   UNL     1      44.180  48.312  17.749  1.00  0.00    -0.269 OA
ATOM     26  N   UNL     1      44.462  46.196  16.980  1.00  0.00    -0.365 N 
ATOM     27  H   UNL     1      43.883  45.928  17.771  1.00  0.00    +0.159 HD
ATOM     28  H   UNL     1      44.161  45.732  16.121  1.00  0.00    +0.159 HD
ENDBRANCH  19  24
ENDBRANCH   8  11
ENDBRANCH   1   7
BRANCH   4  29
ATOM     29  S   UNL     1      51.668  51.922  20.848  1.00  0.00    +0.242 S 
ATOM     30  O   UNL     1      52.957  51.266  20.892  1.00  0.00    -0.207 OA
ATOM     31  O   UNL     1      50.924  52.218  22.054  1.00  0.00    -0.207 OA
BRANCH  29  32
ATOM     32  N   UNL     1      51.851  53.374  19.959  1.00  0.00    -0.198 NA
ATOM     33  C   UNL     1      52.983  53.392  19.004  1.00  0.00    +0.124 C 
BRANCH  32  34
ATOM     34  C   UNL     1      51.856  54.595  20.830  1.00  0.00    +0.134 C 
BRANCH  34  35
ATOM     35  C   UNL     1      51.175  55.782  20.128  1.00  0.00    +0.133 C 
ATOM     36  C   UNL     1      51.576  57.138  20.706  1.00  0.00    +0.036 C 
ATOM     37  O   UNL     1      49.752  55.667  20.332  1.00  0.00    -0.377 OA
ATOM     38  C   UNL     1      50.529  57.374  21.766  1.00  0.00    +0.031 C 
ATOM     39  C   UNL     1      49.300  56.784  21.111  1.00  0.00    +0.160 C 
ENDBRANCH  34  35
ENDBRANCH  32  34
ENDBRANCH  29  32
ENDBRANCH   4  29
TORSDOF 8
ENDMDL
MODEL 2
REMARK VINA RESULT:    -8.693      6.227     10.323
REMARK INTER + INTRA:         -13.983
REMARK INTER:                 -12.758
REMARK INTRA:                  -1.225
REMARK UNBOUND:                -1.225
REMARK SMILES CC(C)[NH+]1CCc2c(sc(NC(=O)c3ccc(S(=O)(=O)N(C)C[C@@H]4CCCO4)cc3)c2C(N)=O)C1
REMARK SMILES IDX 14 1 15 2 16 3 17 4 29 5 30 6 12 7 11 8 13 9 10 11 4 12 5 13
REMARK SMILES IDX 35 14 6 15 8 16 7 17 9 18 31 19 2 21 1 22 3 23 32 24 34 25
REMARK SMILES IDX 33 26 18 29 19 30 20 31 21 32 22 33 23 34 24 35 25 36 28 37
REMARK SMILES IDX 26 38 27 39
REMARK H PARENT 11 10 4 20 33 27 33 28
ROOT
ATOM      1  C   UNL     1      47.777  57.744  18.790  1.00  0.00    +0.040 A 
ATOM      2  C   UNL     1      47.625  58.689  19.813  1.00  0.00    +0.015 A 
ATOM      3  C   UNL     1      47.056  59.933  19.527  1.00  0.00    +0.022 A 
ATOM      4  C   UNL     1      46.658  60.225  18.217  1.00  0.00    +0.082 A 
ATOM      5  C   UNL     1      46.844  59.296  17.187  1.00  0.00    +0.022 A 
ATOM      6  C   UNL     1      47.394  58.046  17.477  1.00  0.00    +0.015 A 
ENDROOT
BRANCH   1   7
ATOM      7  C   UNL     1      48.384  56.428  19.101  1.00  0.00    +0.256 C 
ATOM      8  N   UNL     1      48.747  55.696  17.988  1.00  0.00    -0.313 N 
ATOM      9  O   UNL     1      48.454  56.051  20.265  1.00  0.00    -0.269 OA
ATOM     10  H   UNL     1      48.268  55.885  17.114  1.00  0.00    +0.171 HD
BRANCH   8  11
ATOM     11  C   UNL     1      49.424  54.503  18.093  1.00  0.00    +0.109 A 
ATOM     12  N   UNL     1      50.594  49.830  18.397  1.00  0.00    -0.328 N 
ATOM     13  C   UNL     1      51.977  50.478  18.609  1.00  0.00    +0.267 C 
ATOM     14  C   UNL     1      49.822  50.682  17.376  1.00  0.00    +0.310 C 
ATOM     15  C   UNL     1      51.869  51.876  19.246  1.00  0.00    +0.099 C 
ATOM     16  C   UNL     1      49.852  52.123  17.758  1.00  0.00    +0.065 A 
ATOM     17  C   UNL     1      50.774  52.691  18.616  1.00  0.00    -0.008 A 
ATOM     18  S   UNL     1      48.771  53.267  17.121  1.00  0.00    -0.116 S 
ATOM     19  C   UNL     1      50.539  54.101  18.800  1.00  0.00    +0.078 A 
ATOM     20  H   UNL     1      50.767  48.928  17.936  1.00  0.00    +0.348 HD
BRANCH  12  21
ATOM     21  C   UNL     1      49.809  49.529  19.681  1.00  0.00    +0.178 C 
ATOM     22  C   UNL     1      48.526  48.767  19.342  1.00  0.00    +0.075 C 
ATOM     23  C   UNL     1      50.652  48.673  20.628  1.00  0.00    +0.075 C 
ENDBRANCH  12  21
BRANCH  19  24
ATOM     24  C   UNL     1      51.432  54.986  19.528  1.00  0.00    +0.252 C 
ATOM     25  O   UNL     1      52.285  55.665  18.971  1.00  0.00    -0.269 OA
ATOM     26  N   UNL     1      51.298  54.951  20.885  1.00  0.00    -0.365 N 
ATOM     27  H   UNL     1      51.840  55.687  21.331  1.00  0.00    +0.159 HD
ATOM     28  H   UNL     1      50.327  54.958  21.200  1.00  0.00    +0.159 HD
ENDBRANCH  19  24
ENDBRANCH   8  11
ENDBRANCH   1   7
BRANCH   4  29
ATOM     29  S   UNL     1      45.995  61.837  17.848  1.00  0.00    +0.242 S 
ATOM     30  O   UNL     1      45.346  61.770  16.557  1.00  0.00    -0.207 OA
ATOM     31  O   UNL     1      47.044  62.796  18.122  1.00  0.00    -0.207 OA
BRANCH  29  32
ATOM     32  N   UNL     1      44.776  62.021  19.036  1.00  0.00    -0.198 NA
ATOM     33  C   UNL     1      43.576  61.173  18.846  1.00  0.00    +0.124 C 
BRANCH  32  34
ATOM     34  C   UNL     1      44.397  63.454  19.268  1.00  0.00    +0.134 C 
BRANCH  34  35
ATOM     35  C   UNL     1      43.181  63.853  18.414  1.00  0.00    +0.133 C 
ATOM     36  C   UNL     1      43.556  64.637  17.157  1.00  0.00    +0.036 C 
ATOM     37  O   UNL     1      42.352  64.734  19.200  1.00  0.00    -0.377 OA
ATOM     38  C   UNL     1      43.494  66.070  17.624  1.00  0.00    +0.031 C 
ATOM     39  C   UNL     1      42.320  66.026  18.577  1.00  0.00    +0.160 C 
ENDBRANCH  34  35
ENDBRANCH  32  34
ENDBRANCH  29  32
ENDBRANCH   4  29
TORSDOF 8
ENDMDL
MODEL 3
REMARK VINA RESULT:    -8.279      7.799     12.132
REMARK INTER + INTRA:         -13.376
REMARK INTER:                 -12.018
REMARK INTRA:                  -1.358
REMARK UNBOUND:                -1.225
REMARK SMILES CC(C)[NH+]1CCc2c(sc(NC(=O)c3ccc(S(=O)(=O)N(C)C[C@@H]4CCCO4)cc3)c2C(N)=O)C1
REMARK SMILES IDX 14 1 15 2 16 3 17 4 29 5 30 6 12 7 11 8 13 9 10 11 4 12 5 13
REMARK SMILES IDX 35 14 6 15 8 16 7 17 9 18 31 19 2 21 1 22 3 23 32 24 34 25
REMARK SMILES IDX 33 26 18 29 19 30 20 31 21 32 22 33 23 34 24 35 25 36 28 37
REMARK SMILES IDX 26 38 27 39
REMARK H PARENT 11 10 4 20 33 27 33 28
ROOT
ATOM      1  C   UNL     1      47.469  59.092  19.263  1.00  0.00    +0.040 A 
ATOM      2  C   UNL     1      47.847  58.488  20.468  1.00  0.00    +0.015 A 
ATOM      3  C   UNL     1      48.454  57.230  20.451  1.00  0.00    +0.022 A 
ATOM      4  C   UNL     1      48.664  56.582  19.227  1.00  0.00    +0.082 A 
ATOM      5  C   UNL     1      48.251  57.168  18.025  1.00  0.00    +0.022 A 
ATOM      6  C   UNL     1      47.663  58.433  18.042  1.00  0.00    +0.015 A 
ENDROOT
BRANCH   1   7
ATOM      7  C   UNL     1      46.822  60.426  19.290  1.00  0.00    +0.256 C 
ATOM      8  N   UNL     1      45.687  60.520  18.509  1.00  0.00    -0.313 N 
ATOM      9  O   UNL     1      47.348  61.344  19.908  1.00  0.00    -0.269 OA
ATOM     10  H   UNL     1      45.589  59.880  17.728  1.00  0.00    +0.171 HD
BRANCH   8  11
ATOM     11  C   UNL     1      44.900  61.649  18.504  1.00  0.00    +0.109 A 
ATOM     12  N   UNL     1      41.186  64.731  18.502  1.00  0.00    -0.328 N 
ATOM     13  C   UNL     1      42.363  65.713  18.337  1.00  0.00    +0.267 C 
ATOM     14  C   UNL     1      41.642  63.596  19.433  1.00  0.00    +0.310 C 
ATOM     15  C   UNL     1      43.564  65.062  17.625  1.00  0.00    +0.099 C 
ATOM     16  C   UNL     1      42.946  63.032  18.981  1.00  0.00    +0.065 A 
ATOM     17  C   UNL     1      43.839  63.680  18.150  1.00  0.00    -0.008 A 
ATOM     18  S   UNL     1      43.524  61.521  19.498  1.00  0.00    -0.116 S 
ATOM     19  C   UNL     1      45.005  62.877  17.882  1.00  0.00    +0.078 A 
ATOM     20  H   UNL     1      40.457  65.240  19.016  1.00  0.00    +0.348 HD
BRANCH  12  21
ATOM     21  C   UNL     1      40.549  64.247  17.191  1.00  0.00    +0.178 C 
ATOM     22  C   UNL     1      39.512  63.160  17.485  1.00  0.00    +0.075 C 
ATOM     23  C   UNL     1      39.854  65.410  16.481  1.00  0.00    +0.075 C 
ENDBRANCH  12  21
BRANCH  19  24
ATOM     24  C   UNL     1      46.174  63.355  17.163  1.00  0.00    +0.252 C 
ATOM     25  O   UNL     1      47.176  63.766  17.734  1.00  0.00    -0.269 OA
ATOM     26  N   UNL     1      46.046  63.378  15.805  1.00  0.00    -0.365 N 
ATOM     27  H   UNL     1      46.933  63.579  15.352  1.00  0.00    +0.159 HD
ATOM     28  H   UNL     1      45.612  62.536  15.422  1.00  0.00    +0.159 HD
ENDBRANCH  19  24
ENDBRANCH   8  11
ENDBRANCH   1   7
BRANCH   4  29
ATOM     29  S   UNL     1      49.378  54.949  19.219  1.00  0.00    +0.242 S 
ATOM     30  O   UNL     1      48.794  54.211  18.121  1.00  0.00    -0.207 OA
ATOM     31  O   UNL     1      49.322  54.459  20.580  1.00  0.00    -0.207 OA
BRANCH  29  32
ATOM     32  N   UNL     1      51.016  55.259  18.827  1.00  0.00    -0.198 NA
ATOM     33  C   UNL     1      51.955  54.149  19.111  1.00  0.00    +0.124 C 
BRANCH  32  34
ATOM     34  C   UNL     1      51.517  56.554  19.393  1.00  0.00    +0.134 C 
BRANCH  34  35
ATOM     35  C   UNL     1      52.360  56.318  20.658  1.00  0.00    +0.133 C 
ATOM     36  C   UNL     1      51.874  57.116  21.867  1.00  0.00    +0.036 C 
ATOM     37  O   UNL     1      53.703  56.775  20.394  1.00  0.00    -0.377 OA
ATOM     38  C   UNL     1      52.672  58.392  21.770  1.00  0.00    +0.031 C 
ATOM     39  C   UNL     1      54.001  57.879  21.260  1.00  0.00    +0.160 C 
ENDBRANCH  34  35
ENDBRANCH  32  34
ENDBRANCH  29  32
ENDBRANCH   4  29
TORSDOF 8
ENDMDL
MODEL 4
REMARK VINA RESULT:    -8.151      6.255     10.243
REMARK INTER + INTRA:         -13.188
REMARK INTER:                 -12.057
REMARK INTRA:                  -1.131
REMARK UNBOUND:                -1.225
REMARK SMILES CC(C)[NH+]1CCc2c(sc(NC(=O)c3ccc(S(=O)(=O)N(C)C[C@@H]4CCCO4)cc3)c2C(N)=O)C1
REMARK SMILES IDX 14 1 15 2 16 3 17 4 29 5 30 6 12 7 11 8 13 9 10 11 4 12 5 13
REMARK SMILES IDX 35 14 6 15 8 16 7 17 9 18 31 19 2 21 1 22 3 23 32 24 34 25
REMARK SMILES IDX 33 26 18 29 19 30 20 31 21 32 22 33 23 34 24 35 25 36 28 37
REMARK SMILES IDX 26 38 27 39
REMARK H PARENT 11 10 4 20 33 27 33 28
ROOT
ATOM      1  C   UNL     1      47.542  58.211  17.864  1.00  0.00    +0.040 A 
ATOM      2  C   UNL     1      47.746  58.756  19.138  1.00  0.00    +0.015 A 
ATOM      3  C   UNL     1      47.061  59.914  19.513  1.00  0.00    +0.022 A 
ATOM      4  C   UNL     1      46.189  60.526  18.604  1.00  0.00    +0.082 A 
ATOM      5  C   UNL     1      46.013  60.004  17.317  1.00  0.00    +0.022 A 
ATOM      6  C   UNL     1      46.683  58.835  16.950  1.00  0.00    +0.015 A 
ENDROOT
BRANCH   1   7
ATOM      7  C   UNL     1      48.275  56.984  17.472  1.00  0.00    +0.256 C 
ATOM      8  N   UNL     1      48.628  56.173  18.532  1.00  0.00    -0.313 N 
ATOM      9  O   UNL     1      48.578  56.806  16.298  1.00  0.00    -0.269 OA
ATOM     10  H   UNL     1      48.724  56.599  19.448  1.00  0.00    +0.171 HD
BRANCH   8  11
ATOM     11  C   UNL     1      49.215  54.943  18.342  1.00  0.00    +0.109 A 
ATOM     12  N   UNL     1      50.038  50.227  17.730  1.00  0.00    -0.328 N 
ATOM     13  C   UNL     1      51.484  50.753  17.818  1.00  0.00    +0.267 C 
ATOM     14  C   UNL     1      49.195  51.277  16.989  1.00  0.00    +0.310 C 
ATOM     15  C   UNL     1      51.584  52.030  18.673  1.00  0.00    +0.099 C 
ATOM     16  C   UNL     1      49.396  52.631  17.580  1.00  0.00    +0.065 A 
ATOM     17  C   UNL     1      50.477  52.998  18.358  1.00  0.00    -0.008 A 
ATOM     18  S   UNL     1      48.329  53.924  17.307  1.00  0.00    -0.116 S 
ATOM     19  C   UNL     1      50.386  54.368  18.793  1.00  0.00    +0.078 A 
ATOM     20  H   UNL     1      50.068  49.405  17.113  1.00  0.00    +0.348 HD
BRANCH  12  21
ATOM     21  C   UNL     1      49.428  49.762  19.060  1.00  0.00    +0.178 C 
ATOM     22  C   UNL     1      48.173  48.926  18.796  1.00  0.00    +0.075 C 
ATOM     23  C   UNL     1      50.434  48.906  19.832  1.00  0.00    +0.075 C 
ENDBRANCH  12  21
BRANCH  19  24
ATOM     24  C   UNL     1      51.445  55.070  19.499  1.00  0.00    +0.252 C 
ATOM     25  O   UNL     1      52.262  55.778  18.925  1.00  0.00    -0.269 OA
ATOM     26  N   UNL     1      51.506  54.824  20.839  1.00  0.00    -0.365 N 
ATOM     27  H   UNL     1      52.165  55.445  21.302  1.00  0.00    +0.159 HD
ATOM     28  H   UNL     1      50.594  54.837  21.298  1.00  0.00    +0.159 HD
ENDBRANCH  19  24
ENDBRANCH   8  11
ENDBRANCH   1   7
BRANCH   4  29
ATOM     29  S   UNL     1      45.370  62.039  19.066  1.00  0.00    +0.242 S 
ATOM     30  O   UNL     1      46.208  62.726  20.025  1.00  0.00    -0.207 OA
ATOM     31  O   UNL     1      43.995  61.700  19.365  1.00  0.00    -0.207 OA
BRANCH  29  32
ATOM     32  N   UNL     1      45.398  62.940  17.611  1.00  0.00    -0.198 NA
ATOM     33  C   UNL     1      46.682  63.615  17.309  1.00  0.00    +0.124 C 
BRANCH  32  34
ATOM     34  C   UNL     1      44.244  63.891  17.490  1.00  0.00    +0.134 C 
BRANCH  34  35
ATOM     35  C   UNL     1      43.379  63.562  16.261  1.00  0.00    +0.133 C 
ATOM     36  C   UNL     1      41.880  63.594  16.550  1.00  0.00    +0.036 C 
ATOM     37  O   UNL     1      43.677  62.211  15.851  1.00  0.00    -0.377 OA
ATOM     38  C   UNL     1      41.582  62.167  16.938  1.00  0.00    +0.031 C 
ATOM     39  C   UNL     1      42.501  61.405  16.009  1.00  0.00    +0.160 C 
ENDBRANCH  34  35
ENDBRANCH  32  34
ENDBRANCH  29  32
ENDBRANCH   4  29
TORSDOF 8
ENDMDL
MODEL 5
REMARK VINA RESULT:    -7.702      2.847     10.723
REMARK INTER + INTRA:         -12.529
REMARK INTER:                 -10.951
REMARK INTRA:                  -1.578
REMARK UNBOUND:                -1.225
REMARK SMILES CC(C)[NH+]1CCc2c(sc(NC(=O)c3ccc(S(=O)(=O)N(C)C[C@@H]4CCCO4)cc3)c2C(N)=O)C1
REMARK SMILES IDX 14 1 15 2 16 3 17 4 29 5 30 6 12 7 11 8 13 9 10 11 4 12 5 13
REMARK SMILES IDX 35 14 6 15 8 16 7 17 9 18 31 19 2 21 1 22 3 23 32 24 34 25
REMARK SMILES IDX 33 26 18 29 19 30 20 31 21 32 22 33 23 34 24 35 25 36 28 37
REMARK SMILES IDX 26 38 27 39
REMARK H PARENT 11 10 4 20 33 27 33 28
ROOT
ATOM      1  C   UNL     1      46.240  48.523  16.274  1.00  0.00    +0.040 A 
ATOM      2  C   UNL     1      46.654  48.170  14.983  1.00  0.00    +0.015 A 
ATOM      3  C   UNL     1      45.824  47.382  14.182  1.00  0.00    +0.022 A 
ATOM      4  C   UNL     1      44.594  46.941  14.686  1.00  0.00    +0.082 A 
ATOM      5  C   UNL     1      44.197  47.261  15.989  1.00  0.00    +0.022 A 
ATOM      6  C   UNL     1      45.017  48.065  16.781  1.00  0.00    +0.015 A 
ENDROOT
BRANCH   1   7
ATOM      7  C   UNL     1      47.128  49.357  17.119  1.00  0.00    +0.256 C 
ATOM      8  N   UNL     1      48.055  50.095  16.410  1.00  0.00    -0.313 N 
ATOM      9  O   UNL     1      47.045  49.287  18.340  1.00  0.00    -0.269 OA
ATOM     10  H   UNL     1      48.327  49.763  15.491  1.00  0.00    +0.171 HD
BRANCH   8  11
ATOM     11  C   UNL     1      48.883  51.005  17.026  1.00  0.00    +0.109 A 
ATOM     12  N   UNL     1      52.151  53.147  19.859  1.00  0.00    -0.328 N 
ATOM     13  C   UNL     1      51.573  54.373  19.123  1.00  0.00    +0.267 C 
ATOM     14  C   UNL     1      52.191  51.974  18.867  1.00  0.00    +0.310 C 
ATOM     15  C   UNL     1      50.110  54.154  18.694  1.00  0.00    +0.099 C 
ATOM     16  C   UNL     1      50.873  51.808  18.189  1.00  0.00    +0.065 A 
ATOM     17  C   UNL     1      49.903  52.787  18.102  1.00  0.00    -0.008 A 
ATOM     18  S   UNL     1      50.429  50.385  17.375  1.00  0.00    -0.116 S 
ATOM     19  C   UNL     1      48.734  52.326  17.398  1.00  0.00    +0.078 A 
ATOM     20  H   UNL     1      53.131  53.373  20.067  1.00  0.00    +0.348 HD
BRANCH  12  21
ATOM     21  C   UNL     1      51.479  52.812  21.198  1.00  0.00    +0.178 C 
ATOM     22  C   UNL     1      52.066  51.518  21.767  1.00  0.00    +0.075 C 
ATOM     23  C   UNL     1      51.712  53.940  22.204  1.00  0.00    +0.075 C 
ENDBRANCH  12  21
BRANCH  19  24
ATOM     24  C   UNL     1      47.617  53.179  17.027  1.00  0.00    +0.252 C 
ATOM     25  O   UNL     1      46.456  52.892  17.286  1.00  0.00    -0.269 OA
ATOM     26  N   UNL     1      47.954  54.287  16.306  1.00  0.00    -0.365 N 
ATOM     27  H   UNL     1      47.162  54.916  16.200  1.00  0.00    +0.159 HD
ATOM     28  H   UNL     1      48.774  54.776  16.668  1.00  0.00    +0.159 HD
ENDBRANCH  19  24
ENDBRANCH   8  11
ENDBRANCH   1   7
BRANCH   4  29
ATOM     29  S   UNL     1      43.572  45.882  13.682  1.00  0.00    +0.242 S 
ATOM     30  O   UNL     1      42.653  45.187  14.556  1.00  0.00    -0.207 OA
ATOM     31  O   UNL     1      44.458  45.166  12.788  1.00  0.00    -0.207 OA
BRANCH  29  32
ATOM     32  N   UNL     1      42.666  47.002  12.757  1.00  0.00    -0.198 NA
ATOM     33  C   UNL     1      41.310  47.299  13.275  1.00  0.00    +0.124 C 
BRANCH  32  34
ATOM     34  C   UNL     1      42.627  46.658  11.298  1.00  0.00    +0.134 C 
BRANCH  34  35
ATOM     35  C   UNL     1      43.206  47.798  10.442  1.00  0.00    +0.133 C 
ATOM     36  C   UNL     1      44.438  47.386   9.638  1.00  0.00    +0.036 C 
ATOM     37  O   UNL     1      43.643  48.848  11.330  1.00  0.00    -0.377 OA
ATOM     38  C   UNL     1      45.575  47.726  10.569  1.00  0.00    +0.031 C 
ATOM     39  C   UNL     1      45.066  48.994  11.217  1.00  0.00    +0.160 C 
ENDBRANCH  34  35
ENDBRANCH  32  34
ENDBRANCH  29  32
ENDBRANCH   4  29
TORSDOF 8
ENDMDL
