MODEL 1
REMARK VINA RESULT:    -8.065      0.000      0.000
REMARK INTER + INTRA:         -13.970
REMARK INTER:                 -12.779
REMARK INTRA:                  -1.191
REMARK UNBOUND:                -1.191
REMARK SMILES COCCOC(=O)c1c(NC(=O)CSc2ccc(F)c(F)c2)sc(C(N)=O)c1C
REMARK SMILES IDX 29 1 28 2 8 3 9 4 23 5 24 6 6 7 7 8 5 9 4 10 3 11 2 12 1 13
REMARK SMILES IDX 25 14 27 15 26 16 10 19 11 20 12 21 13 23 14 24 15 25 16 26
REMARK SMILES IDX 22 27 17 28 20 29 18 30 21 31 19 32
REMARK H PARENT 26 17 26 18 10 22
ROOT
ATOM      1  C   UNL     1      49.742  57.983  22.053  1.00  0.00    +0.047 C 
ATOM      2  C   UNL     1      49.584  56.757  21.201  1.00  0.00    -0.011 A 
ATOM      3  C   UNL     1      50.479  55.606  21.253  1.00  0.00    +0.098 A 
ATOM      4  C   UNL     1      50.078  54.613  20.370  1.00  0.00    +0.111 A 
ATOM      5  S   UNL     1      48.677  55.041  19.526  1.00  0.00    -0.112 S 
ATOM      6  C   UNL     1      48.573  56.579  20.261  1.00  0.00    +0.098 A 
ENDROOT
BRANCH   3   7
ATOM      7  C   UNL     1      51.670  55.503  22.100  1.00  0.00    +0.341 C 
ATOM      8  O   UNL     1      51.637  55.346  23.314  1.00  0.00    -0.246 OA
BRANCH   7   9
ATOM      9  O   UNL     1      52.826  55.630  21.385  1.00  0.00    -0.460 OA
BRANCH   9  10
ATOM     10  C   UNL     1      52.881  56.736  20.468  1.00  0.00    +0.261 C 
BRANCH  10  11
ATOM     11  C   UNL     1      54.220  57.458  20.610  1.00  0.00    +0.201 C 
BRANCH  11  12
ATOM     12  O   UNL     1      54.227  58.159  21.863  1.00  0.00    -0.381 OA
ATOM     13  C   UNL     1      53.119  59.049  21.952  1.00  0.00    +0.195 C 
ENDBRANCH  11  12
ENDBRANCH  10  11
ENDBRANCH   9  10
ENDBRANCH   7   9
ENDBRANCH   3   7
BRANCH   6  14
ATOM     14  C   UNL     1      47.520  57.515  19.873  1.00  0.00    +0.259 C 
ATOM     15  O   UNL     1      46.635  57.923  20.621  1.00  0.00    -0.269 OA
ATOM     16  N   UNL     1      47.536  57.964  18.581  1.00  0.00    -0.365 N 
ATOM     17  H   UNL     1      46.845  58.645  18.304  1.00  0.00    +0.159 HD
ATOM     18  H   UNL     1      48.272  57.703  17.938  1.00  0.00    +0.159 HD
ENDBRANCH   6  14
BRANCH   4  19
ATOM     19  N   UNL     1      50.722  53.405  20.118  1.00  0.00    -0.316 N 
ATOM     20  C   UNL     1      51.749  53.174  19.215  1.00  0.00    +0.235 C 
ATOM     21  O   UNL     1      52.264  53.991  18.456  1.00  0.00    -0.274 OA
ATOM     22  H   UNL     1      50.351  52.602  20.624  1.00  0.00    +0.170 HD
BRANCH  20  23
ATOM     23  C   UNL     1      52.213  51.722  19.208  1.00  0.00    +0.175 C 
BRANCH  23  24
ATOM     24  S   UNL     1      51.021  50.703  20.139  1.00  0.00    -0.116 SA
BRANCH  24  25
ATOM     25  C   UNL     1      50.034  50.052  18.806  1.00  0.00    +0.011 A 
ATOM     26  C   UNL     1      49.056  49.069  19.017  1.00  0.00    +0.018 A 
ATOM     27  C   UNL     1      50.213  50.573  17.520  1.00  0.00    +0.057 A 
ATOM     28  C   UNL     1      48.289  48.590  17.951  1.00  0.00    +0.043 A 
ATOM     29  C   UNL     1      49.448  50.090  16.462  1.00  0.00    +0.159 A 
ATOM     30  C   UNL     1      48.495  49.102  16.675  1.00  0.00    +0.158 A 
ATOM     31  F   UNL     1      49.640  50.588  15.233  1.00  0.00    -0.204 F 
ATOM     32  F   UNL     1      47.760  48.640  15.654  1.00  0.00    -0.204 F 
ENDBRANCH  24  25
ENDBRANCH  23  24
ENDBRANCH  20  23
ENDBRANCH   4  19
TORSDOF 10
ENDMDL
MODEL 2
REMARK VINA RESULT:    -7.755      4.163      7.469
REMARK INTER + INTRA:         -13.480
REMARK INTER:                 -12.089
REMARK INTRA:                  -1.391
REMARK UNBOUND:                -1.191
REMARK SMILES COCCOC(=O)c1c(NC(=O)CSc2ccc(F)c(F)c2)sc(C(N)=O)c1C
REMARK SMILES IDX 29 1 28 2 8 3 9 4 23 5 24 6 6 7 7 8 5 9 4 10 3 11 2 12 1 13
REMARK SMILES IDX 25 14 27 15 26 16 10 19 11 20 12 21 13 23 14 24 15 25 16 26
REMARK SMILES IDX 22 27 17 28 20 29 18 30 21 31 19 32
REMARK H PARENT 26 17 26 18 10 22
ROOT
ATOM      1  C   UNL     1      50.614  49.003  19.953  1.00  0.00    +0.047 C 
ATOM      2  C   UNL     1      50.126  50.167  19.139  1.00  0.00    -0.011 A 
ATOM      3  C   UNL     1      50.512  51.553  19.385  1.00  0.00    +0.098 A 
ATOM      4  C   UNL     1      49.925  52.411  18.465  1.00  0.00    +0.111 A 
ATOM      5  S   UNL     1      48.964  51.584  17.347  1.00  0.00    -0.112 S 
ATOM      6  C   UNL     1      49.248  50.061  18.065  1.00  0.00    +0.098 A 
ENDROOT
BRANCH   3   7
ATOM      7  C   UNL     1      51.382  52.006  20.473  1.00  0.00    +0.341 C 
ATOM      8  O   UNL     1      52.565  51.708  20.574  1.00  0.00    -0.246 OA
BRANCH   7   9
ATOM      9  O   UNL     1      50.715  52.775  21.383  1.00  0.00    -0.460 OA
BRANCH   9  10
ATOM     10  C   UNL     1      51.529  53.628  22.206  1.00  0.00    +0.261 C 
BRANCH  10  11
ATOM     11  C   UNL     1      51.781  54.951  21.487  1.00  0.00    +0.201 C 
BRANCH  11  12
ATOM     12  O   UNL     1      52.285  55.899  22.441  1.00  0.00    -0.381 OA
ATOM     13  C   UNL     1      52.348  57.203  21.875  1.00  0.00    +0.195 C 
ENDBRANCH  11  12
ENDBRANCH  10  11
ENDBRANCH   9  10
ENDBRANCH   7   9
ENDBRANCH   3   7
BRANCH   6  14
ATOM     14  C   UNL     1      48.594  48.863  17.543  1.00  0.00    +0.259 C 
ATOM     15  O   UNL     1      47.591  48.345  18.028  1.00  0.00    -0.269 OA
ATOM     16  N   UNL     1      49.148  48.290  16.431  1.00  0.00    -0.365 N 
ATOM     17  H   UNL     1      48.686  47.488  16.028  1.00  0.00    +0.159 HD
ATOM     18  H   UNL     1      49.941  48.704  15.960  1.00  0.00    +0.159 HD
ENDBRANCH   6  14
BRANCH   4  19
ATOM     19  N   UNL     1      50.028  53.799  18.429  1.00  0.00    -0.316 N 
ATOM     20  C   UNL     1      49.160  54.720  18.998  1.00  0.00    +0.235 C 
ATOM     21  O   UNL     1      48.129  54.478  19.620  1.00  0.00    -0.274 OA
ATOM     22  H   UNL     1      50.803  54.163  17.877  1.00  0.00    +0.170 HD
BRANCH  20  23
ATOM     23  C   UNL     1      49.590  56.162  18.758  1.00  0.00    +0.175 C 
BRANCH  23  24
ATOM     24  S   UNL     1      48.884  57.227  20.060  1.00  0.00    -0.116 SA
BRANCH  24  25
ATOM     25  C   UNL     1      47.897  58.337  19.076  1.00  0.00    +0.011 A 
ATOM     26  C   UNL     1      47.565  58.052  17.743  1.00  0.00    +0.018 A 
ATOM     27  C   UNL     1      47.403  59.504  19.669  1.00  0.00    +0.057 A 
ATOM     28  C   UNL     1      46.777  58.937  17.002  1.00  0.00    +0.043 A 
ATOM     29  C   UNL     1      46.620  60.382  18.925  1.00  0.00    +0.159 A 
ATOM     30  C   UNL     1      46.312  60.104  17.599  1.00  0.00    +0.158 A 
ATOM     31  F   UNL     1      46.166  61.503  19.501  1.00  0.00    -0.204 F 
ATOM     32  F   UNL     1      45.558  60.953  16.887  1.00  0.00    -0.204 F 
ENDBRANCH  24  25
ENDBRANCH  23  24
ENDBRANCH  20  23
ENDBRANCH   4  19
TORSDOF 10
ENDMDL
MODEL 3
REMARK VINA RESULT:    -7.549      4.126      7.357
REMARK INTER + INTRA:         -13.154
REMARK INTER:                 -11.630
REMARK INTRA:                  -1.524
REMARK UNBOUND:                -1.191
REMARK SMILES COCCOC(=O)c1c(NC(=O)CSc2ccc(F)c(F)c2)sc(C(N)=O)c1C
REMARK SMILES IDX 29 1 28 2 8 3 9 4 23 5 24 6 6 7 7 8 5 9 4 10 3 11 2 12 1 13
REMARK SMILES IDX 25 14 27 15 26 16 10 19 11 20 12 21 13 23 14 24 15 25 16 26
REMARK SMILES IDX 22 27 17 28 20 29 18 30 21 31 19 32
REMARK H PARENT 26 17 26 18 10 22
ROOT
ATOM      1  C   UNL     1      45.799  50.137  16.954  1.00  0.00    +0.047 C 
ATOM      2  C   UNL     1      47.128  49.652  17.455  1.00  0.00    -0.011 A 
ATOM      3  C   UNL     1      48.284  50.516  17.671  1.00  0.00    +0.098 A 
ATOM      4  C   UNL     1      49.367  49.798  18.158  1.00  0.00    +0.111 A 
ATOM      5  S   UNL     1      49.006  48.159  18.359  1.00  0.00    -0.112 S 
ATOM      6  C   UNL     1      47.414  48.325  17.765  1.00  0.00    +0.098 A 
ENDROOT
BRANCH   3   7
ATOM      7  C   UNL     1      48.325  51.954  17.390  1.00  0.00    +0.341 C 
ATOM      8  O   UNL     1      47.898  52.465  16.363  1.00  0.00    -0.246 OA
BRANCH   7   9
ATOM      9  O   UNL     1      48.923  52.660  18.394  1.00  0.00    -0.460 OA
BRANCH   9  10
ATOM     10  C   UNL     1      49.001  54.083  18.204  1.00  0.00    +0.261 C 
BRANCH  10  11
ATOM     11  C   UNL     1      48.647  54.797  19.507  1.00  0.00    +0.201 C 
BRANCH  11  12
ATOM     12  O   UNL     1      48.853  56.206  19.324  1.00  0.00    -0.381 OA
ATOM     13  C   UNL     1      48.533  56.923  20.511  1.00  0.00    +0.195 C 
ENDBRANCH  11  12
ENDBRANCH  10  11
ENDBRANCH   9  10
ENDBRANCH   7   9
ENDBRANCH   3   7
BRANCH   6  14
ATOM     14  C   UNL     1      46.548  47.156  17.631  1.00  0.00    +0.259 C 
ATOM     15  O   UNL     1      46.673  46.287  16.772  1.00  0.00    -0.269 OA
ATOM     16  N   UNL     1      45.533  47.030  18.539  1.00  0.00    -0.365 N 
ATOM     17  H   UNL     1      44.950  46.207  18.491  1.00  0.00    +0.159 HD
ATOM     18  H   UNL     1      45.416  47.686  19.299  1.00  0.00    +0.159 HD
ENDBRANCH   6  14
BRANCH   4  19
ATOM     19  N   UNL     1      50.643  50.286  18.427  1.00  0.00    -0.316 N 
ATOM     20  C   UNL     1      51.312  50.262  19.643  1.00  0.00    +0.235 C 
ATOM     21  O   UNL     1      50.890  49.824  20.710  1.00  0.00    -0.274 OA
ATOM     22  H   UNL     1      51.103  50.755  17.648  1.00  0.00    +0.170 HD
BRANCH  20  23
ATOM     23  C   UNL     1      52.699  50.887  19.566  1.00  0.00    +0.175 C 
BRANCH  23  24
ATOM     24  S   UNL     1      52.608  52.444  18.619  1.00  0.00    -0.116 SA
BRANCH  24  25
ATOM     25  C   UNL     1      52.226  53.598  19.923  1.00  0.00    +0.011 A 
ATOM     26  C   UNL     1      51.837  53.171  21.201  1.00  0.00    +0.018 A 
ATOM     27  C   UNL     1      52.365  54.967  19.671  1.00  0.00    +0.057 A 
ATOM     28  C   UNL     1      51.557  54.102  22.205  1.00  0.00    +0.043 A 
ATOM     29  C   UNL     1      52.084  55.889  20.676  1.00  0.00    +0.159 A 
ATOM     30  C   UNL     1      51.679  55.461  21.934  1.00  0.00    +0.158 A 
ATOM     31  F   UNL     1      52.207  57.198  20.417  1.00  0.00    -0.204 F 
ATOM     32  F   UNL     1      51.408  56.352  22.897  1.00  0.00    -0.204 F 
ENDBRANCH  24  25
ENDBRANCH  23  24
ENDBRANCH  20  23
ENDBRANCH   4  19
TORSDOF 10
ENDMDL
MODEL 4
REMARK VINA RESULT:    -7.450      2.230      2.861
REMARK INTER + INTRA:         -12.996
REMARK INTER:                 -11.616
REMARK INTRA:                  -1.380
REMARK UNBOUND:                -1.191
REMARK SMILES COCCOC(=O)c1c(NC(=O)CSc2ccc(F)c(F)c2)sc(C(N)=O)c1C
REMARK SMILES IDX 29 1 28 2 8 3 9 4 23 5 24 6 6 7 7 8 5 9 4 10 3 11 2 12 1 13
REMARK SMILES IDX 25 14 27 15 26 16 10 19 11 20 12 21 13 23 14 24 15 25 16 26
REMARK SMILES IDX 22 27 17 28 20 29 18 30 21 31 19 32
REMARK H PARENT 26 17 26 18 10 22
ROOT
ATOM      1  C   UNL     1      47.547  58.929  18.067  1.00  0.00    +0.047 C 
ATOM      2  C   UNL     1      48.014  57.505  17.966  1.00  0.00    -0.011 A 
ATOM      3  C   UNL     1      48.701  56.794  19.038  1.00  0.00    +0.098 A 
ATOM      4  C   UNL     1      48.994  55.488  18.671  1.00  0.00    +0.111 A 
ATOM      5  S   UNL     1      48.453  55.129  17.110  1.00  0.00    -0.112 S 
ATOM      6  C   UNL     1      47.851  56.705  16.839  1.00  0.00    +0.098 A 
ENDROOT
BRANCH   3   7
ATOM      7  C   UNL     1      49.070  57.373  20.333  1.00  0.00    +0.341 C 
ATOM      8  O   UNL     1      48.266  57.663  21.209  1.00  0.00    -0.246 OA
BRANCH   7   9
ATOM      9  O   UNL     1      50.415  57.582  20.442  1.00  0.00    -0.460 OA
BRANCH   9  10
ATOM     10  C   UNL     1      50.925  57.726  21.778  1.00  0.00    +0.261 C 
BRANCH  10  11
ATOM     11  C   UNL     1      51.727  56.484  22.160  1.00  0.00    +0.201 C 
BRANCH  11  12
ATOM     12  O   UNL     1      53.120  56.758  21.943  1.00  0.00    -0.381 OA
ATOM     13  C   UNL     1      53.347  58.157  21.815  1.00  0.00    +0.195 C 
ENDBRANCH  11  12
ENDBRANCH  10  11
ENDBRANCH   9  10
ENDBRANCH   7   9
ENDBRANCH   3   7
BRANCH   6  14
ATOM     14  C   UNL     1      47.267  57.062  15.549  1.00  0.00    +0.259 C 
ATOM     15  O   UNL     1      46.073  57.276  15.356  1.00  0.00    -0.269 OA
ATOM     16  N   UNL     1      48.124  57.166  14.488  1.00  0.00    -0.365 N 
ATOM     17  H   UNL     1      47.747  57.454  13.597  1.00  0.00    +0.159 HD
ATOM     18  H   UNL     1      49.122  57.053  14.600  1.00  0.00    +0.159 HD
ENDBRANCH   6  14
BRANCH   4  19
ATOM     19  N   UNL     1      49.687  54.541  19.421  1.00  0.00    -0.316 N 
ATOM     20  C   UNL     1      51.056  54.313  19.427  1.00  0.00    +0.235 C 
ATOM     21  O   UNL     1      51.905  54.893  18.754  1.00  0.00    -0.274 OA
ATOM     22  H   UNL     1      49.105  53.922  19.983  1.00  0.00    +0.170 HD
BRANCH  20  23
ATOM     23  C   UNL     1      51.463  53.194  20.377  1.00  0.00    +0.175 C 
BRANCH  23  24
ATOM     24  S   UNL     1      52.232  51.842  19.422  1.00  0.00    -0.116 SA
BRANCH  24  25
ATOM     25  C   UNL     1      50.800  50.849  19.049  1.00  0.00    +0.011 A 
ATOM     26  C   UNL     1      50.529  49.653  19.729  1.00  0.00    +0.018 A 
ATOM     27  C   UNL     1      49.899  51.305  18.080  1.00  0.00    +0.057 A 
ATOM     28  C   UNL     1      49.389  48.904  19.422  1.00  0.00    +0.043 A 
ATOM     29  C   UNL     1      48.767  50.554  17.778  1.00  0.00    +0.159 A 
ATOM     30  C   UNL     1      48.515  49.359  18.441  1.00  0.00    +0.158 A 
ATOM     31  F   UNL     1      47.921  50.994  16.837  1.00  0.00    -0.204 F 
ATOM     32  F   UNL     1      47.424  48.639  18.146  1.00  0.00    -0.204 F 
ENDBRANCH  24  25
ENDBRANCH  23  24
ENDBRANCH  20  23
ENDBRANCH   4  19
TORSDOF 10
ENDMDL
MODEL 5
REMARK VINA RESULT:    -7.413      2.701      4.585
REMARK INTER + INTRA:         -12.939
REMARK INTER:                 -11.785
REMARK INTRA:                  -1.153
REMARK UNBOUND:                -1.191
REMARK SMILES COCCOC(=O)c1c(NC(=O)CSc2ccc(F)c(F)c2)sc(C(N)=O)c1C
REMARK SMILES IDX 29 1 28 2 8 3 9 4 23 5 24 6 6 7 7 8 5 9 4 10 3 11 2 12 1 13
REMARK SMILES IDX 25 14 27 15 26 16 10 19 11 20 12 21 13 23 14 24 15 25 16 26
REMARK SMILES IDX 22 27 17 28 20 29 18 30 21 31 19 32
REMARK H PARENT 26 17 26 18 10 22
ROOT
ATOM      1  C   UNL     1      49.958  57.606  20.570  1.00  0.00    +0.047 C 
ATOM      2  C   UNL     1      50.735  56.403  20.122  1.00  0.00    -0.011 A 
ATOM      3  C   UNL     1      50.157  55.289  19.377  1.00  0.00    +0.098 A 
ATOM      4  C   UNL     1      51.115  54.329  19.081  1.00  0.00    +0.111 A 
ATOM      5  S   UNL     1      52.644  54.755  19.661  1.00  0.00    -0.112 S 
ATOM      6  C   UNL     1      52.090  56.207  20.370  1.00  0.00    +0.098 A 
ENDROOT
BRANCH   3   7
ATOM      7  C   UNL     1      48.745  55.166  19.004  1.00  0.00    +0.341 C 
ATOM      8  O   UNL     1      47.832  55.043  19.810  1.00  0.00    -0.246 OA
BRANCH   7   9
ATOM      9  O   UNL     1      48.565  55.174  17.651  1.00  0.00    -0.460 OA
BRANCH   9  10
ATOM     10  C   UNL     1      48.352  56.463  17.051  1.00  0.00    +0.261 C 
BRANCH  10  11
ATOM     11  C   UNL     1      47.811  56.289  15.634  1.00  0.00    +0.201 C 
BRANCH  11  12
ATOM     12  O   UNL     1      47.479  57.584  15.110  1.00  0.00    -0.381 OA
ATOM     13  C   UNL     1      46.162  57.964  15.496  1.00  0.00    +0.195 C 
ENDBRANCH  11  12
ENDBRANCH  10  11
ENDBRANCH   9  10
ENDBRANCH   7   9
ENDBRANCH   3   7
BRANCH   6  14
ATOM     14  C   UNL     1      53.007  57.058  21.126  1.00  0.00    +0.259 C 
ATOM     15  O   UNL     1      53.952  57.673  20.640  1.00  0.00    -0.269 OA
ATOM     16  N   UNL     1      52.780  57.170  22.470  1.00  0.00    -0.365 N 
ATOM     17  H   UNL     1      53.375  57.788  23.003  1.00  0.00    +0.159 HD
ATOM     18  H   UNL     1      51.986  56.729  22.913  1.00  0.00    +0.159 HD
ENDBRANCH   6  14
BRANCH   4  19
ATOM     19  N   UNL     1      50.911  53.114  18.430  1.00  0.00    -0.316 N 
ATOM     20  C   UNL     1      50.617  51.890  19.012  1.00  0.00    +0.235 C 
ATOM     21  O   UNL     1      50.503  51.649  20.211  1.00  0.00    -0.274 OA
ATOM     22  H   UNL     1      51.047  53.134  17.420  1.00  0.00    +0.170 HD
BRANCH  20  23
ATOM     23  C   UNL     1      50.458  50.773  17.988  1.00  0.00    +0.175 C 
BRANCH  23  24
ATOM     24  S   UNL     1      49.731  49.309  18.799  1.00  0.00    -0.116 SA
BRANCH  24  25
ATOM     25  C   UNL     1      48.270  49.077  17.805  1.00  0.00    +0.011 A 
ATOM     26  C   UNL     1      46.997  48.946  18.379  1.00  0.00    +0.018 A 
ATOM     27  C   UNL     1      48.397  49.070  16.412  1.00  0.00    +0.057 A 
ATOM     28  C   UNL     1      45.868  48.778  17.571  1.00  0.00    +0.043 A 
ATOM     29  C   UNL     1      47.270  48.901  15.613  1.00  0.00    +0.159 A 
ATOM     30  C   UNL     1      46.014  48.752  16.188  1.00  0.00    +0.158 A 
ATOM     31  F   UNL     1      47.407  48.883  14.281  1.00  0.00    -0.204 F 
ATOM     32  F   UNL     1      44.931  48.589  15.415  1.00  0.00    -0.204 F 
ENDBRANCH  24  25
ENDBRANCH  23  24
ENDBRANCH  20  23
ENDBRANCH   4  19
TORSDOF 10
ENDMDL
