MODEL 1
REMARK VINA RESULT:    -9.242      0.000      0.000
REMARK INTER + INTRA:         -14.837
REMARK INTER:                 -13.564
REMARK INTRA:                  -1.274
REMARK UNBOUND:                -1.274
REMARK SMILES Cc1sc2nc(CS[C@@H](C)C(=O)NNC(=O)[C@@H](C)Oc3ccccc3F)[nH]c(=O)c2c1C
REMARK SMILES IDX 11 1 12 2 13 3 9 5 10 6 8 7 7 8 6 9 31 10 2 11 30 12 3 13
REMARK SMILES IDX 4 14 28 15 5 16 29 17 27 18 32 19 1 20 14 22 15 23 16 24
REMARK SMILES IDX 17 26 18 27 19 28 20 29 21 30 25 31 22 32 24 33 23 34 26 35
REMARK H PARENT 13 4 27 21 14 25
ROOT
ATOM      1  C   UNL     1      51.562  50.783  19.260  1.00  0.00    +0.251 C 
ATOM      2  O   UNL     1      51.230  49.659  19.635  1.00  0.00    -0.272 OA
ATOM      3  N   UNL     1      51.162  51.299  18.036  1.00  0.00    -0.267 N 
ATOM      4  H   UNL     1      51.743  52.041  17.638  1.00  0.00    +0.191 HD
ENDROOT
BRANCH   1   5
ATOM      5  C   UNL     1      52.385  51.735  20.126  1.00  0.00    +0.135 C 
ATOM      6  C   UNL     1      52.027  51.542  21.595  1.00  0.00    +0.030 C 
BRANCH   5   7
ATOM      7  S   UNL     1      52.070  53.493  19.658  1.00  0.00    -0.141 SA
BRANCH   7   8
ATOM      8  C   UNL     1      50.568  53.814  20.648  1.00  0.00    +0.145 C 
BRANCH   8   9
ATOM      9  C   UNL     1      49.797  54.960  20.030  1.00  0.00    +0.120 C 
ATOM     10  C   UNL     1      47.627  58.068  18.351  1.00  0.00    -0.022 A 
ATOM     11  C   UNL     1      47.524  58.970  19.405  1.00  0.00    +0.007 A 
ATOM     12  C   UNL     1      48.363  56.899  18.754  1.00  0.00    +0.080 A 
ATOM     13  S   UNL     1      48.321  58.412  20.814  1.00  0.00    -0.120 S 
ATOM     14  C   UNL     1      48.794  56.959  20.063  1.00  0.00    +0.131 A 
ATOM     15  C   UNL     1      48.695  55.705  17.999  1.00  0.00    +0.259 C 
ATOM     16  N   UNL     1      49.504  56.012  20.732  1.00  0.00    -0.223 NA
ATOM     17  O   UNL     1      48.352  55.497  16.838  1.00  0.00    -0.269 OA
ATOM     18  N   UNL     1      49.437  54.789  18.709  1.00  0.00    -0.309 N 
ATOM     19  C   UNL     1      47.054  58.262  16.983  1.00  0.00    +0.046 C 
ATOM     20  C   UNL     1      46.838  60.298  19.430  1.00  0.00    +0.057 C 
ATOM     21  H   UNL     1      49.639  53.926  18.224  1.00  0.00    +0.171 HD
ENDBRANCH   8   9
ENDBRANCH   7   8
ENDBRANCH   5   7
ENDBRANCH   1   5
BRANCH   3  22
ATOM     22  N   UNL     1      50.699  50.354  17.090  1.00  0.00    -0.264 N 
ATOM     23  C   UNL     1      49.648  50.771  16.277  1.00  0.00    +0.279 C 
ATOM     24  O   UNL     1      48.975  51.770  16.533  1.00  0.00    -0.269 OA
ATOM     25  H   UNL     1      51.444  49.826  16.628  1.00  0.00    +0.191 HD
BRANCH  23  26
ATOM     26  C   UNL     1      49.400  49.828  15.092  1.00  0.00    +0.260 C 
ATOM     27  C   UNL     1      50.694  49.576  14.329  1.00  0.00    +0.064 C 
BRANCH  26  28
ATOM     28  O   UNL     1      48.920  48.606  15.664  1.00  0.00    -0.478 OA
BRANCH  28  29
ATOM     29  C   UNL     1      47.621  48.522  16.077  1.00  0.00    +0.156 A 
ATOM     30  C   UNL     1      46.711  48.321  15.033  1.00  0.00    +0.049 A 
ATOM     31  C   UNL     1      47.127  48.625  17.379  1.00  0.00    +0.165 A 
ATOM     32  C   UNL     1      45.341  48.212  15.287  1.00  0.00    +0.004 A 
ATOM     33  C   UNL     1      45.760  48.516  17.638  1.00  0.00    +0.043 A 
ATOM     34  C   UNL     1      44.864  48.307  16.594  1.00  0.00    +0.003 A 
ATOM     35  F   UNL     1      47.938  48.840  18.425  1.00  0.00    -0.203 F 
ENDBRANCH  28  29
ENDBRANCH  26  28
ENDBRANCH  23  26
ENDBRANCH   3  22
TORSDOF 8
ENDMDL
MODEL 2
REMARK VINA RESULT:    -8.813      3.350      8.372
REMARK INTER + INTRA:         -14.209
REMARK INTER:                 -13.639
REMARK INTRA:                  -0.570
REMARK UNBOUND:                -1.274
REMARK SMILES Cc1sc2nc(CS[C@@H](C)C(=O)NNC(=O)[C@@H](C)Oc3ccccc3F)[nH]c(=O)c2c1C
REMARK SMILES IDX 11 1 12 2 13 3 9 5 10 6 8 7 7 8 6 9 31 10 2 11 30 12 3 13
REMARK SMILES IDX 4 14 28 15 5 16 29 17 27 18 32 19 1 20 14 22 15 23 16 24
REMARK SMILES IDX 17 26 18 27 19 28 20 29 21 30 25 31 22 32 24 33 23 34 26 35
REMARK H PARENT 13 4 27 21 14 25
ROOT
ATOM      1  C   UNL     1      52.201  51.590  20.485  1.00  0.00    +0.251 C 
ATOM      2  O   UNL     1      52.256  51.276  21.674  1.00  0.00    -0.272 OA
ATOM      3  N   UNL     1      52.262  52.912  20.069  1.00  0.00    -0.267 N 
ATOM      4  H   UNL     1      51.856  53.125  19.154  1.00  0.00    +0.191 HD
ENDROOT
BRANCH   1   5
ATOM      5  C   UNL     1      52.127  50.560  19.359  1.00  0.00    +0.135 C 
ATOM      6  C   UNL     1      52.325  51.247  18.013  1.00  0.00    +0.030 C 
BRANCH   5   7
ATOM      7  S   UNL     1      50.494  49.699  19.359  1.00  0.00    -0.141 SA
BRANCH   7   8
ATOM      8  C   UNL     1      49.484  50.948  18.489  1.00  0.00    +0.145 C 
BRANCH   8   9
ATOM      9  C   UNL     1      48.534  50.250  17.539  1.00  0.00    +0.120 C 
ATOM     10  C   UNL     1      45.971  48.286  14.939  1.00  0.00    -0.022 A 
ATOM     11  C   UNL     1      45.008  47.766  15.797  1.00  0.00    +0.007 A 
ATOM     12  C   UNL     1      46.968  49.015  15.677  1.00  0.00    +0.080 A 
ATOM     13  S   UNL     1      45.306  48.181  17.432  1.00  0.00    -0.120 S 
ATOM     14  C   UNL     1      46.725  49.034  17.034  1.00  0.00    +0.131 A 
ATOM     15  C   UNL     1      48.156  49.702  15.204  1.00  0.00    +0.259 C 
ATOM     16  N   UNL     1      47.484  49.634  17.991  1.00  0.00    -0.223 NA
ATOM     17  O   UNL     1      48.517  49.742  14.031  1.00  0.00    -0.269 OA
ATOM     18  N   UNL     1      48.875  50.315  16.204  1.00  0.00    -0.309 N 
ATOM     19  C   UNL     1      45.993  48.117  13.452  1.00  0.00    +0.046 C 
ATOM     20  C   UNL     1      43.809  46.938  15.460  1.00  0.00    +0.057 C 
ATOM     21  H   UNL     1      49.735  50.759  15.910  1.00  0.00    +0.171 HD
ENDBRANCH   8   9
ENDBRANCH   7   8
ENDBRANCH   5   7
ENDBRANCH   1   5
BRANCH   3  22
ATOM     22  N   UNL     1      51.997  53.884  21.062  1.00  0.00    -0.264 N 
ATOM     23  C   UNL     1      52.161  55.212  20.674  1.00  0.00    +0.279 C 
ATOM     24  O   UNL     1      52.758  55.527  19.645  1.00  0.00    -0.269 OA
ATOM     25  H   UNL     1      51.176  53.681  21.638  1.00  0.00    +0.191 HD
BRANCH  23  26
ATOM     26  C   UNL     1      51.576  56.206  21.687  1.00  0.00    +0.260 C 
ATOM     27  C   UNL     1      51.857  57.639  21.252  1.00  0.00    +0.064 C 
BRANCH  26  28
ATOM     28  O   UNL     1      50.164  55.963  21.697  1.00  0.00    -0.478 OA
BRANCH  28  29
ATOM     29  C   UNL     1      49.340  56.756  20.951  1.00  0.00    +0.156 A 
ATOM     30  C   UNL     1      49.137  56.289  19.648  1.00  0.00    +0.049 A 
ATOM     31  C   UNL     1      48.718  57.946  21.335  1.00  0.00    +0.165 A 
ATOM     32  C   UNL     1      48.318  56.986  18.755  1.00  0.00    +0.004 A 
ATOM     33  C   UNL     1      47.899  58.646  20.449  1.00  0.00    +0.043 A 
ATOM     34  C   UNL     1      47.694  58.166  19.158  1.00  0.00    +0.003 A 
ATOM     35  F   UNL     1      48.886  58.465  22.560  1.00  0.00    -0.203 F 
ENDBRANCH  28  29
ENDBRANCH  26  28
ENDBRANCH  23  26
ENDBRANCH   3  22
TORSDOF 8
ENDMDL
MODEL 3
REMARK VINA RESULT:    -8.719      4.391     10.713
REMARK INTER + INTRA:         -14.071
REMARK INTER:                 -13.524
REMARK INTRA:                  -0.546
REMARK UNBOUND:                -1.274
REMARK SMILES Cc1sc2nc(CS[C@@H](C)C(=O)NNC(=O)[C@@H](C)Oc3ccccc3F)[nH]c(=O)c2c1C
REMARK SMILES IDX 11 1 12 2 13 3 9 5 10 6 8 7 7 8 6 9 31 10 2 11 30 12 3 13
REMARK SMILES IDX 4 14 28 15 5 16 29 17 27 18 32 19 1 20 14 22 15 23 16 24
REMARK SMILES IDX 17 26 18 27 19 28 20 29 21 30 25 31 22 32 24 33 23 34 26 35
REMARK H PARENT 13 4 27 21 14 25
ROOT
ATOM      1  C   UNL     1      48.613  57.928  20.873  1.00  0.00    +0.251 C 
ATOM      2  O   UNL     1      48.592  58.578  21.918  1.00  0.00    -0.272 OA
ATOM      3  N   UNL     1      48.050  58.406  19.698  1.00  0.00    -0.267 N 
ATOM      4  H   UNL     1      47.780  57.707  19.001  1.00  0.00    +0.191 HD
ENDROOT
BRANCH   1   5
ATOM      5  C   UNL     1      49.312  56.575  20.752  1.00  0.00    +0.135 C 
ATOM      6  C   UNL     1      50.607  56.586  21.557  1.00  0.00    +0.030 C 
BRANCH   5   7
ATOM      7  S   UNL     1      49.704  56.189  18.990  1.00  0.00    -0.141 SA
BRANCH   7   8
ATOM      8  C   UNL     1      51.285  55.300  19.211  1.00  0.00    +0.145 C 
BRANCH   8   9
ATOM      9  C   UNL     1      51.018  53.812  19.274  1.00  0.00    +0.120 C 
ATOM     10  C   UNL     1      50.239  49.745  19.490  1.00  0.00    -0.022 A 
ATOM     11  C   UNL     1      49.343  49.552  18.445  1.00  0.00    +0.007 A 
ATOM     12  C   UNL     1      50.631  51.128  19.574  1.00  0.00    +0.080 A 
ATOM     13  S   UNL     1      49.020  51.002  17.592  1.00  0.00    -0.120 S 
ATOM     14  C   UNL     1      50.042  51.913  18.605  1.00  0.00    +0.131 A 
ATOM     15  C   UNL     1      51.522  51.785  20.511  1.00  0.00    +0.259 C 
ATOM     16  N   UNL     1      50.207  53.251  18.428  1.00  0.00    -0.223 NA
ATOM     17  O   UNL     1      52.091  51.223  21.443  1.00  0.00    -0.269 OA
ATOM     18  N   UNL     1      51.679  53.131  20.276  1.00  0.00    -0.309 N 
ATOM     19  C   UNL     1      50.737  48.681  20.416  1.00  0.00    +0.046 C 
ATOM     20  C   UNL     1      48.678  48.285  18.010  1.00  0.00    +0.057 C 
ATOM     21  H   UNL     1      52.255  53.625  20.944  1.00  0.00    +0.171 HD
ENDBRANCH   8   9
ENDBRANCH   7   8
ENDBRANCH   5   7
ENDBRANCH   1   5
BRANCH   3  22
ATOM     22  N   UNL     1      47.127  59.467  19.843  1.00  0.00    -0.264 N 
ATOM     23  C   UNL     1      47.214  60.485  18.896  1.00  0.00    +0.279 C 
ATOM     24  O   UNL     1      48.190  60.612  18.155  1.00  0.00    -0.269 OA
ATOM     25  H   UNL     1      46.182  59.168  20.096  1.00  0.00    +0.191 HD
BRANCH  23  26
ATOM     26  C   UNL     1      46.010  61.436  18.929  1.00  0.00    +0.260 C 
ATOM     27  C   UNL     1      46.266  62.588  19.893  1.00  0.00    +0.064 C 
BRANCH  26  28
ATOM     28  O   UNL     1      45.874  61.934  17.593  1.00  0.00    -0.478 OA
BRANCH  28  29
ATOM     29  C   UNL     1      45.893  63.281  17.373  1.00  0.00    +0.156 A 
ATOM     30  C   UNL     1      44.625  63.873  17.391  1.00  0.00    +0.049 A 
ATOM     31  C   UNL     1      47.002  64.093  17.127  1.00  0.00    +0.165 A 
ATOM     32  C   UNL     1      44.472  65.247  17.184  1.00  0.00    +0.004 A 
ATOM     33  C   UNL     1      46.855  65.465  16.919  1.00  0.00    +0.043 A 
ATOM     34  C   UNL     1      45.590  66.045  16.950  1.00  0.00    +0.003 A 
ATOM     35  F   UNL     1      48.244  63.591  17.072  1.00  0.00    -0.203 F 
ENDBRANCH  28  29
ENDBRANCH  26  28
ENDBRANCH  23  26
ENDBRANCH   3  22
TORSDOF 8
ENDMDL
MODEL 4
REMARK VINA RESULT:    -8.547      2.645      3.911
REMARK INTER + INTRA:         -13.819
REMARK INTER:                 -13.163
REMARK INTRA:                  -0.655
REMARK UNBOUND:                -1.274
REMARK SMILES Cc1sc2nc(CS[C@@H](C)C(=O)NNC(=O)[C@@H](C)Oc3ccccc3F)[nH]c(=O)c2c1C
REMARK SMILES IDX 11 1 12 2 13 3 9 5 10 6 8 7 7 8 6 9 31 10 2 11 30 12 3 13
REMARK SMILES IDX 4 14 28 15 5 16 29 17 27 18 32 19 1 20 14 22 15 23 16 24
REMARK SMILES IDX 17 26 18 27 19 28 20 29 21 30 25 31 22 32 24 33 23 34 26 35
REMARK H PARENT 13 4 27 21 14 25
ROOT
ATOM      1  C   UNL     1      50.188  49.841  18.966  1.00  0.00    +0.251 C 
ATOM      2  O   UNL     1      50.440  48.789  19.552  1.00  0.00    -0.272 OA
ATOM      3  N   UNL     1      48.901  50.169  18.564  1.00  0.00    -0.267 N 
ATOM      4  H   UNL     1      48.817  50.839  17.795  1.00  0.00    +0.191 HD
ENDROOT
BRANCH   1   5
ATOM      5  C   UNL     1      51.245  50.909  18.687  1.00  0.00    +0.135 C 
ATOM      6  C   UNL     1      51.865  50.678  17.313  1.00  0.00    +0.030 C 
BRANCH   5   7
ATOM      7  S   UNL     1      52.579  50.866  19.962  1.00  0.00    -0.141 SA
BRANCH   7   8
ATOM      8  C   UNL     1      51.598  51.262  21.452  1.00  0.00    +0.145 C 
BRANCH   8   9
ATOM      9  C   UNL     1      51.131  52.699  21.375  1.00  0.00    +0.120 C 
ATOM     10  C   UNL     1      49.899  56.650  21.124  1.00  0.00    -0.022 A 
ATOM     11  C   UNL     1      48.923  56.601  20.135  1.00  0.00    +0.007 A 
ATOM     12  C   UNL     1      50.454  55.342  21.354  1.00  0.00    +0.080 A 
ATOM     13  S   UNL     1      48.686  55.014  19.537  1.00  0.00    -0.120 S 
ATOM     14  C   UNL     1      49.886  54.369  20.559  1.00  0.00    +0.131 A 
ATOM     15  C   UNL     1      51.501  54.926  22.269  1.00  0.00    +0.259 C 
ATOM     16  N   UNL     1      50.200  53.046  20.539  1.00  0.00    -0.223 NA
ATOM     17  O   UNL     1      52.118  55.683  23.012  1.00  0.00    -0.269 OA
ATOM     18  N   UNL     1      51.764  53.576  22.232  1.00  0.00    -0.309 N 
ATOM     19  C   UNL     1      50.332  57.880  21.858  1.00  0.00    +0.046 C 
ATOM     20  C   UNL     1      48.104  57.722  19.578  1.00  0.00    +0.057 C 
ATOM     21  H   UNL     1      52.523  53.266  22.823  1.00  0.00    +0.171 HD
ENDBRANCH   8   9
ENDBRANCH   7   8
ENDBRANCH   5   7
ENDBRANCH   1   5
BRANCH   3  22
ATOM     22  N   UNL     1      47.982  49.096  18.502  1.00  0.00    -0.264 N 
ATOM     23  C   UNL     1      46.932  49.244  17.599  1.00  0.00    +0.279 C 
ATOM     24  O   UNL     1      46.649  50.331  17.093  1.00  0.00    -0.269 OA
ATOM     25  H   UNL     1      48.417  48.170  18.538  1.00  0.00    +0.191 HD
BRANCH  23  26
ATOM     26  C   UNL     1      46.157  47.940  17.365  1.00  0.00    +0.260 C 
ATOM     27  C   UNL     1      45.503  47.468  18.657  1.00  0.00    +0.064 C 
BRANCH  26  28
ATOM     28  O   UNL     1      45.153  48.256  16.392  1.00  0.00    -0.478 OA
BRANCH  28  29
ATOM     29  C   UNL     1      45.090  47.536  15.234  1.00  0.00    +0.156 A 
ATOM     30  C   UNL     1      45.536  48.238  14.109  1.00  0.00    +0.049 A 
ATOM     31  C   UNL     1      44.631  46.228  15.062  1.00  0.00    +0.165 A 
ATOM     32  C   UNL     1      45.537  47.642  12.845  1.00  0.00    +0.004 A 
ATOM     33  C   UNL     1      44.630  45.628  13.803  1.00  0.00    +0.043 A 
ATOM     34  C   UNL     1      45.086  46.332  12.692  1.00  0.00    +0.003 A 
ATOM     35  F   UNL     1      44.167  45.504  16.091  1.00  0.00    -0.203 F 
ENDBRANCH  28  29
ENDBRANCH  26  28
ENDBRANCH  23  26
ENDBRANCH   3  22
TORSDOF 8
ENDMDL
MODEL 5
REMARK VINA RESULT:    -8.530      2.818      8.824
REMARK INTER + INTRA:         -13.794
REMARK INTER:                 -12.911
REMARK INTRA:                  -0.882
REMARK UNBOUND:                -1.274
REMARK SMILES Cc1sc2nc(CS[C@@H](C)C(=O)NNC(=O)[C@@H](C)Oc3ccccc3F)[nH]c(=O)c2c1C
REMARK SMILES IDX 11 1 12 2 13 3 9 5 10 6 8 7 7 8 6 9 31 10 2 11 30 12 3 13
REMARK SMILES IDX 4 14 28 15 5 16 29 17 27 18 32 19 1 20 14 22 15 23 16 24
REMARK SMILES IDX 17 26 18 27 19 28 20 29 21 30 25 31 22 32 24 33 23 34 26 35
REMARK H PARENT 13 4 27 21 14 25
ROOT
ATOM      1  C   UNL     1      50.701  54.262  20.715  1.00  0.00    +0.251 C 
ATOM      2  O   UNL     1      50.995  54.754  21.804  1.00  0.00    -0.272 OA
ATOM      3  N   UNL     1      50.123  55.011  19.701  1.00  0.00    -0.267 N 
ATOM      4  H   UNL     1      49.586  54.496  18.998  1.00  0.00    +0.191 HD
ENDROOT
BRANCH   1   5
ATOM      5  C   UNL     1      51.000  52.807  20.356  1.00  0.00    +0.135 C 
ATOM      6  C   UNL     1      51.818  52.156  21.465  1.00  0.00    +0.030 C 
BRANCH   5   7
ATOM      7  S   UNL     1      51.942  52.698  18.772  1.00  0.00    -0.141 SA
BRANCH   7   8
ATOM      8  C   UNL     1      52.033  50.883  18.589  1.00  0.00    +0.145 C 
BRANCH   8   9
ATOM      9  C   UNL     1      50.803  50.392  17.855  1.00  0.00    +0.120 C 
ATOM     10  C   UNL     1      47.462  48.988  15.842  1.00  0.00    -0.022 A 
ATOM     11  C   UNL     1      46.609  48.632  16.881  1.00  0.00    +0.007 A 
ATOM     12  C   UNL     1      48.701  49.507  16.358  1.00  0.00    +0.080 A 
ATOM     13  S   UNL     1      47.294  48.948  18.418  1.00  0.00    -0.120 S 
ATOM     14  C   UNL     1      48.739  49.538  17.736  1.00  0.00    +0.131 A 
ATOM     15  C   UNL     1      49.877  49.977  15.650  1.00  0.00    +0.259 C 
ATOM     16  N   UNL     1      49.768  49.967  18.515  1.00  0.00    -0.223 NA
ATOM     17  O   UNL     1      50.000  49.979  14.428  1.00  0.00    -0.269 OA
ATOM     18  N   UNL     1      50.880  50.426  16.478  1.00  0.00    -0.309 N 
ATOM     19  C   UNL     1      47.158  48.854  14.383  1.00  0.00    +0.046 C 
ATOM     20  C   UNL     1      45.236  48.045  16.799  1.00  0.00    +0.057 C 
ATOM     21  H   UNL     1      51.730  50.712  16.014  1.00  0.00    +0.171 HD
ENDBRANCH   8   9
ENDBRANCH   7   8
ENDBRANCH   5   7
ENDBRANCH   1   5
BRANCH   3  22
ATOM     22  N   UNL     1      49.537  56.236  20.096  1.00  0.00    -0.264 N 
ATOM     23  C   UNL     1      48.627  56.793  19.200  1.00  0.00    +0.279 C 
ATOM     24  O   UNL     1      48.537  56.413  18.032  1.00  0.00    -0.269 OA
ATOM     25  H   UNL     1      49.278  56.277  21.085  1.00  0.00    +0.191 HD
BRANCH  23  26
ATOM     26  C   UNL     1      47.815  57.943  19.812  1.00  0.00    +0.260 C 
ATOM     27  C   UNL     1      48.187  58.140  21.276  1.00  0.00    +0.064 C 
BRANCH  26  28
ATOM     28  O   UNL     1      48.165  59.108  19.054  1.00  0.00    -0.478 OA
BRANCH  28  29
ATOM     29  C   UNL     1      47.185  59.980  18.672  1.00  0.00    +0.156 A 
ATOM     30  C   UNL     1      47.029  61.066  19.540  1.00  0.00    +0.049 A 
ATOM     31  C   UNL     1      46.348  59.893  17.558  1.00  0.00    +0.165 A 
ATOM     32  C   UNL     1      46.069  62.051  19.291  1.00  0.00    +0.004 A 
ATOM     33  C   UNL     1      45.388  60.874  17.304  1.00  0.00    +0.043 A 
ATOM     34  C   UNL     1      45.248  61.956  18.168  1.00  0.00    +0.003 A 
ATOM     35  F   UNL     1      46.426  58.869  16.696  1.00  0.00    -0.203 F 
ENDBRANCH  28  29
ENDBRANCH  26  28
ENDBRANCH  23  26
ENDBRANCH   3  22
TORSDOF 8
ENDMDL
