MODEL 1
REMARK VINA RESULT:    -6.203      0.000      0.000
REMARK INTER + INTRA:          -8.981
REMARK INTER:                  -8.378
REMARK INTRA:                  -0.603
REMARK UNBOUND:                -0.603
REMARK SMILES [NH3+]C[C@@H](O)CN1CCN(S(=O)(=O)c2cccs2)CC1
REMARK SMILES IDX 5 1 6 2 9 3 8 4 18 5 7 6 19 7 10 8 11 9 12 10 13 11 15 12
REMARK SMILES IDX 14 13 16 14 17 15 3 16 2 17 1 18 4 22
REMARK H PARENT 1 19 1 20 1 21 4 23
ROOT
ATOM      1  C   UNL     1      52.584  56.193  20.638  1.00  0.00    +0.122 C 
ENDROOT
BRANCH   1   2
ATOM      2  N   UNL     1      51.617  55.809  21.689  1.00  0.00    -0.298 NA
ATOM      3  N   UNL     1      50.052  53.747  20.309  1.00  0.00    -0.195 NA
ATOM      4  C   UNL     1      50.532  53.462  21.686  1.00  0.00    +0.118 C 
ATOM      5  C   UNL     1      49.721  55.190  20.093  1.00  0.00    +0.118 C 
ATOM      6  C   UNL     1      51.716  54.377  22.082  1.00  0.00    +0.101 C 
ATOM      7  C   UNL     1      50.230  56.094  21.240  1.00  0.00    +0.101 C 
BRANCH   3   8
ATOM      8  S   UNL     1      50.903  52.989  19.042  1.00  0.00    +0.252 S 
ATOM      9  O   UNL     1      51.710  53.993  18.385  1.00  0.00    -0.206 OA
ATOM     10  O   UNL     1      51.493  51.779  19.581  1.00  0.00    -0.206 OA
BRANCH   8  11
ATOM     11  C   UNL     1      49.704  52.494  17.829  1.00  0.00    +0.135 A 
ATOM     12  C   UNL     1      47.942  52.362  16.307  1.00  0.00    +0.013 A 
ATOM     13  C   UNL     1      48.630  53.159  17.266  1.00  0.00    +0.033 A 
ATOM     14  C   UNL     1      48.519  51.120  16.163  1.00  0.00    +0.066 A 
ATOM     15  S   UNL     1      49.884  50.924  17.176  1.00  0.00    -0.131 S 
ENDBRANCH   8  11
ENDBRANCH   3   8
ENDBRANCH   1   2
BRANCH   1  16
ATOM     16  C   UNL     1      53.574  57.264  21.131  1.00  0.00    +0.183 C 
BRANCH  16  17
ATOM     17  C   UNL     1      53.029  58.680  20.924  1.00  0.00    +0.292 C 
BRANCH  17  18
ATOM     18  N   UNL     1      52.367  59.084  22.200  1.00  0.00    -0.355 N 
ATOM     19  H   UNL     1      53.030  59.725  22.677  1.00  0.00    +0.344 HD
ATOM     20  H   UNL     1      52.168  58.295  22.823  1.00  0.00    +0.344 HD
ATOM     21  H   UNL     1      51.509  59.623  22.041  1.00  0.00    +0.344 HD
ENDBRANCH  17  18
ENDBRANCH  16  17
BRANCH  16  22
ATOM     22  O   UNL     1      53.813  57.104  22.543  1.00  0.00    -0.386 OA
ATOM     23  H   UNL     1      54.292  57.923  22.808  1.00  0.00    +0.211 HD
ENDBRANCH  16  22
ENDBRANCH   1  16
TORSDOF 7
ENDMDL
MODEL 2
REMARK VINA RESULT:    -6.185      3.215      6.300
REMARK INTER + INTRA:          -8.958
REMARK INTER:                  -8.400
REMARK INTRA:                  -0.558
REMARK UNBOUND:                -0.603
REMARK SMILES [NH3+]C[C@@H](O)CN1CCN(S(=O)(=O)c2cccs2)CC1
REMARK SMILES IDX 5 1 6 2 9 3 8 4 18 5 7 6 19 7 10 8 11 9 12 10 13 11 15 12
REMARK SMILES IDX 14 13 16 14 17 15 3 16 2 17 1 18 4 22
REMARK H PARENT 1 19 1 20 1 21 4 23
ROOT
ATOM      1  C   UNL     1      51.536  50.980  20.479  1.00  0.00    +0.122 C 
ENDROOT
BRANCH   1   2
ATOM      2  N   UNL     1      51.949  51.476  19.148  1.00  0.00    -0.298 NA
ATOM      3  N   UNL     1      51.110  54.283  19.292  1.00  0.00    -0.195 NA
ATOM      4  C   UNL     1      52.472  53.981  18.781  1.00  0.00    +0.118 C 
ATOM      5  C   UNL     1      50.107  53.232  18.935  1.00  0.00    +0.118 C 
ATOM      6  C   UNL     1      52.950  52.575  19.218  1.00  0.00    +0.101 C 
ATOM      7  C   UNL     1      50.765  51.945  18.385  1.00  0.00    +0.101 C 
BRANCH   3   8
ATOM      8  S   UNL     1      51.017  54.879  20.886  1.00  0.00    +0.252 S 
ATOM      9  O   UNL     1      50.490  53.827  21.724  1.00  0.00    -0.206 OA
ATOM     10  O   UNL     1      52.285  55.519  21.183  1.00  0.00    -0.206 OA
BRANCH   8  11
ATOM     11  C   UNL     1      49.773  56.147  20.899  1.00  0.00    +0.135 A 
ATOM     12  C   UNL     1      47.863  57.451  20.598  1.00  0.00    +0.013 A 
ATOM     13  C   UNL     1      48.535  56.233  20.290  1.00  0.00    +0.033 A 
ATOM     14  C   UNL     1      48.606  58.249  21.439  1.00  0.00    +0.066 A 
ATOM     15  S   UNL     1      50.101  57.527  21.855  1.00  0.00    -0.131 S 
ENDBRANCH   8  11
ENDBRANCH   3   8
ENDBRANCH   1   2
BRANCH   1  16
ATOM     16  C   UNL     1      51.580  49.444  20.559  1.00  0.00    +0.183 C 
BRANCH  16  17
ATOM     17  C   UNL     1      50.209  48.821  20.281  1.00  0.00    +0.292 C 
BRANCH  17  18
ATOM     18  N   UNL     1      50.114  48.612  18.806  1.00  0.00    -0.355 N 
ATOM     19  H   UNL     1      49.229  48.096  18.644  1.00  0.00    +0.344 HD
ATOM     20  H   UNL     1      50.889  48.062  18.422  1.00  0.00    +0.344 HD
ATOM     21  H   UNL     1      50.032  49.496  18.291  1.00  0.00    +0.344 HD
ENDBRANCH  17  18
ENDBRANCH  16  17
BRANCH  16  22
ATOM     22  O   UNL     1      52.490  48.922  19.571  1.00  0.00    -0.386 OA
ATOM     23  H   UNL     1      53.331  48.772  20.062  1.00  0.00    +0.211 HD
ENDBRANCH  16  22
ENDBRANCH   1  16
TORSDOF 7
ENDMDL
MODEL 3
REMARK VINA RESULT:    -6.026      3.071      7.026
REMARK INTER + INTRA:          -8.742
REMARK INTER:                  -8.109
REMARK INTRA:                  -0.633
REMARK UNBOUND:                -0.603
REMARK SMILES [NH3+]C[C@@H](O)CN1CCN(S(=O)(=O)c2cccs2)CC1
REMARK SMILES IDX 5 1 6 2 9 3 8 4 18 5 7 6 19 7 10 8 11 9 12 10 13 11 15 12
REMARK SMILES IDX 14 13 16 14 17 15 3 16 2 17 1 18 4 22
REMARK H PARENT 1 19 1 20 1 21 4 23
ROOT
ATOM      1  C   UNL     1      49.732  50.453  18.541  1.00  0.00    +0.122 C 
ENDROOT
BRANCH   1   2
ATOM      2  N   UNL     1      51.080  49.983  18.929  1.00  0.00    -0.298 NA
ATOM      3  N   UNL     1      52.196  52.392  20.177  1.00  0.00    -0.195 NA
ATOM      4  C   UNL     1      52.350  51.095  20.887  1.00  0.00    +0.118 C 
ATOM      5  C   UNL     1      52.233  52.249  18.688  1.00  0.00    +0.118 C 
ATOM      6  C   UNL     1      51.322  50.047  20.396  1.00  0.00    +0.101 C 
ATOM      7  C   UNL     1      52.122  50.776  18.229  1.00  0.00    +0.101 C 
BRANCH   3   8
ATOM      8  S   UNL     1      51.006  53.449  20.787  1.00  0.00    +0.252 S 
ATOM      9  O   UNL     1      49.997  53.619  19.766  1.00  0.00    -0.206 OA
ATOM     10  O   UNL     1      50.664  52.992  22.120  1.00  0.00    -0.206 OA
BRANCH   8  11
ATOM     11  C   UNL     1      51.764  55.046  20.956  1.00  0.00    +0.135 A 
ATOM     12  C   UNL     1      52.853  57.084  20.636  1.00  0.00    +0.013 A 
ATOM     13  C   UNL     1      52.411  55.864  20.048  1.00  0.00    +0.033 A 
ATOM     14  C   UNL     1      52.520  57.161  21.970  1.00  0.00    +0.066 A 
ATOM     15  S   UNL     1      51.676  55.771  22.503  1.00  0.00    -0.131 S 
ENDBRANCH   8  11
ENDBRANCH   3   8
ENDBRANCH   1   2
BRANCH   1  16
ATOM     16  C   UNL     1      48.816  49.291  18.120  1.00  0.00    +0.183 C 
BRANCH  16  17
ATOM     17  C   UNL     1      48.486  49.340  16.625  1.00  0.00    +0.292 C 
BRANCH  17  18
ATOM     18  N   UNL     1      49.786  49.341  15.890  1.00  0.00    -0.355 N 
ATOM     19  H   UNL     1      49.686  50.039  15.130  1.00  0.00    +0.344 HD
ATOM     20  H   UNL     1      50.019  48.434  15.474  1.00  0.00    +0.344 HD
ATOM     21  H   UNL     1      50.565  49.661  16.476  1.00  0.00    +0.344 HD
ENDBRANCH  17  18
ENDBRANCH  16  17
BRANCH  16  22
ATOM     22  O   UNL     1      49.470  48.030  18.368  1.00  0.00    -0.386 OA
ATOM     23  H   UNL     1      49.172  47.446  17.632  1.00  0.00    +0.211 HD
ENDBRANCH  16  22
ENDBRANCH   1  16
TORSDOF 7
ENDMDL
MODEL 4
REMARK VINA RESULT:    -5.994      5.426      6.927
REMARK INTER + INTRA:          -8.699
REMARK INTER:                  -8.109
REMARK INTRA:                  -0.590
REMARK UNBOUND:                -0.603
REMARK SMILES [NH3+]C[C@@H](O)CN1CCN(S(=O)(=O)c2cccs2)CC1
REMARK SMILES IDX 5 1 6 2 9 3 8 4 18 5 7 6 19 7 10 8 11 9 12 10 13 11 15 12
REMARK SMILES IDX 14 13 16 14 17 15 3 16 2 17 1 18 4 22
REMARK H PARENT 1 19 1 20 1 21 4 23
ROOT
ATOM      1  C   UNL     1      50.731  50.428  17.346  1.00  0.00    +0.122 C 
ENDROOT
BRANCH   1   2
ATOM      2  N   UNL     1      49.695  50.553  18.395  1.00  0.00    -0.298 NA
ATOM      3  N   UNL     1      47.348  49.449  17.024  1.00  0.00    -0.195 NA
ATOM      4  C   UNL     1      47.638  48.987  18.407  1.00  0.00    +0.118 C 
ATOM      5  C   UNL     1      47.732  50.877  16.794  1.00  0.00    +0.118 C 
ATOM      6  C   UNL     1      49.112  49.245  18.801  1.00  0.00    +0.101 C 
ATOM      7  C   UNL     1      48.604  51.449  17.935  1.00  0.00    +0.101 C 
BRANCH   3   8
ATOM      8  S   UNL     1      47.746  48.367  15.769  1.00  0.00    +0.252 S 
ATOM      9  O   UNL     1      48.671  49.036  14.882  1.00  0.00    -0.206 OA
ATOM     10  O   UNL     1      48.073  47.094  16.383  1.00  0.00    -0.206 OA
BRANCH   8  11
ATOM     11  C   UNL     1      46.276  48.123  14.804  1.00  0.00    +0.135 A 
ATOM     12  C   UNL     1      44.689  47.892  13.110  1.00  0.00    +0.013 A 
ATOM     13  C   UNL     1      46.045  48.175  13.442  1.00  0.00    +0.033 A 
ATOM     14  C   UNL     1      43.932  47.624  14.230  1.00  0.00    +0.066 A 
ATOM     15  S   UNL     1      44.858  47.709  15.667  1.00  0.00    -0.131 S 
ENDBRANCH   8  11
ENDBRANCH   3   8
ENDBRANCH   1   2
BRANCH   1  16
ATOM     16  C   UNL     1      52.084  51.002  17.802  1.00  0.00    +0.183 C 
BRANCH  16  17
ATOM     17  C   UNL     1      52.367  50.690  19.274  1.00  0.00    +0.292 C 
BRANCH  17  18
ATOM     18  N   UNL     1      52.733  49.245  19.352  1.00  0.00    -0.355 N 
ATOM     19  H   UNL     1      53.670  49.161  18.914  1.00  0.00    +0.344 HD
ATOM     20  H   UNL     1      52.081  48.632  18.851  1.00  0.00    +0.344 HD
ATOM     21  H   UNL     1      52.836  48.920  20.319  1.00  0.00    +0.344 HD
ENDBRANCH  17  18
ENDBRANCH  16  17
BRANCH  16  22
ATOM     22  O   UNL     1      53.153  50.418  17.032  1.00  0.00    -0.386 OA
ATOM     23  H   UNL     1      53.466  51.148  16.448  1.00  0.00    +0.211 HD
ENDBRANCH  16  22
ENDBRANCH   1  16
TORSDOF 7
ENDMDL
MODEL 5
REMARK VINA RESULT:    -5.708      5.092      6.965
REMARK INTER + INTRA:          -8.314
REMARK INTER:                  -7.869
REMARK INTRA:                  -0.445
REMARK UNBOUND:                -0.603
REMARK SMILES [NH3+]C[C@@H](O)CN1CCN(S(=O)(=O)c2cccs2)CC1
REMARK SMILES IDX 5 1 6 2 9 3 8 4 18 5 7 6 19 7 10 8 11 9 12 10 13 11 15 12
REMARK SMILES IDX 14 13 16 14 17 15 3 16 2 17 1 18 4 22
REMARK H PARENT 1 19 1 20 1 21 4 23
ROOT
ATOM      1  C   UNL     1      50.092  49.805  18.773  1.00  0.00    +0.122 C 
ENDROOT
BRANCH   1   2
ATOM      2  N   UNL     1      50.029  50.931  17.815  1.00  0.00    -0.298 NA
ATOM      3  N   UNL     1      47.872  50.053  16.031  1.00  0.00    -0.195 NA
ATOM      4  C   UNL     1      47.843  51.451  16.536  1.00  0.00    +0.118 C 
ATOM      5  C   UNL     1      49.261  49.539  15.817  1.00  0.00    +0.118 C 
ATOM      6  C   UNL     1      48.709  51.620  17.807  1.00  0.00    +0.101 C 
ATOM      7  C   UNL     1      50.337  50.456  16.443  1.00  0.00    +0.101 C 
BRANCH   3   8
ATOM      8  S   UNL     1      46.789  48.963  16.768  1.00  0.00    +0.252 S 
ATOM      9  O   UNL     1      47.564  48.020  17.542  1.00  0.00    -0.206 OA
ATOM     10  O   UNL     1      45.730  49.748  17.372  1.00  0.00    -0.206 OA
BRANCH   8  11
ATOM     11  C   UNL     1      46.054  47.999  15.469  1.00  0.00    +0.135 A 
ATOM     12  C   UNL     1      45.340  47.104  13.437  1.00  0.00    +0.013 A 
ATOM     13  C   UNL     1      46.066  48.139  14.094  1.00  0.00    +0.033 A 
ATOM     14  C   UNL     1      44.807  46.204  14.333  1.00  0.00    +0.066 A 
ATOM     15  S   UNL     1      45.186  46.606  15.952  1.00  0.00    -0.131 S 
ENDBRANCH   8  11
ENDBRANCH   3   8
ENDBRANCH   1   2
BRANCH   1  16
ATOM     16  C   UNL     1      51.361  49.859  19.641  1.00  0.00    +0.183 C 
BRANCH  16  17
ATOM     17  C   UNL     1      51.339  51.048  20.606  1.00  0.00    +0.292 C 
BRANCH  17  18
ATOM     18  N   UNL     1      52.310  50.743  21.698  1.00  0.00    -0.355 N 
ATOM     19  H   UNL     1      52.978  50.053  21.306  1.00  0.00    +0.344 HD
ATOM     20  H   UNL     1      51.871  50.337  22.531  1.00  0.00    +0.344 HD
ATOM     21  H   UNL     1      52.865  51.562  21.966  1.00  0.00    +0.344 HD
ENDBRANCH  17  18
ENDBRANCH  16  17
BRANCH  16  22
ATOM     22  O   UNL     1      51.462  48.665  20.443  1.00  0.00    -0.386 OA
ATOM     23  H   UNL     1      51.591  48.993  21.363  1.00  0.00    +0.211 HD
ENDBRANCH  16  22
ENDBRANCH   1  16
TORSDOF 7
ENDMDL
