MODEL 1
REMARK VINA RESULT:    -6.748      0.000      0.000
REMARK INTER + INTRA:          -8.764
REMARK INTER:                  -8.326
REMARK INTRA:                  -0.439
REMARK UNBOUND:                -0.439
REMARK SMILES COc1cc(OC)c(NC(=O)C2=CNSN2)cc1Cl
REMARK SMILES IDX 5 1 4 2 3 3 18 4 17 5 8 6 19 7 6 8 7 9 9 10 10 11 11 12
REMARK SMILES IDX 12 14 13 15 16 16 14 17 15 18 2 21 1 22
REMARK H PARENT 9 13 16 19 14 20
ROOT
ATOM      1  C   UNL     1      45.733  47.858  17.646  1.00  0.00    +0.146 A 
ATOM      2  C   UNL     1      44.537  47.664  16.942  1.00  0.00    +0.096 A 
ATOM      3  C   UNL     1      44.513  47.762  15.546  1.00  0.00    +0.141 A 
ATOM      4  C   UNL     1      45.704  48.059  14.865  1.00  0.00    +0.085 A 
ATOM      5  C   UNL     1      46.902  48.255  15.559  1.00  0.00    +0.054 A 
ATOM      6  C   UNL     1      46.925  48.153  16.948  1.00  0.00    +0.085 A 
ATOM      7 Cl   UNL     1      45.738  48.200  13.140  1.00  0.00    -0.080 Cl
ENDROOT
BRANCH   1   8
ATOM      8  O   UNL     1      45.861  47.789  19.016  1.00  0.00    -0.494 OA
ATOM      9  C   UNL     1      44.862  47.072  19.730  1.00  0.00    +0.278 C 
ENDBRANCH   1   8
BRANCH   6  10
ATOM     10  N   UNL     1      48.088  48.339  17.729  1.00  0.00    -0.317 N 
ATOM     11  C   UNL     1      48.715  49.518  18.055  1.00  0.00    +0.274 C 
ATOM     12  O   UNL     1      48.409  50.648  17.684  1.00  0.00    -0.267 OA
ATOM     13  H   UNL     1      48.525  47.468  18.015  1.00  0.00    +0.170 HD
BRANCH  11  14
ATOM     14  C   UNL     1      49.919  49.349  18.926  1.00  0.00    +0.128 C 
ATOM     15  C   UNL     1      49.926  48.818  20.162  1.00  0.00    +0.123 C 
ATOM     16  N   UNL     1      51.133  49.925  18.546  1.00  0.00    -0.306 N 
ATOM     17  N   UNL     1      51.132  48.907  20.839  1.00  0.00    -0.317 N 
ATOM     18  S   UNL     1      52.131  49.898  19.900  1.00  0.00    +0.065 SA
ATOM     19  H   UNL     1      50.992  50.791  18.025  1.00  0.00    +0.177 HD
ATOM     20  H   UNL     1      51.042  49.130  21.827  1.00  0.00    +0.176 HD
ENDBRANCH  11  14
ENDBRANCH   6  10
BRANCH   3  21
ATOM     21  O   UNL     1      43.391  47.591  14.775  1.00  0.00    -0.495 OA
ATOM     22  C   UNL     1      42.926  46.268  14.553  1.00  0.00    +0.278 C 
ENDBRANCH   3  21
TORSDOF 4
ENDMDL
MODEL 2
REMARK VINA RESULT:    -6.700      4.864      6.589
REMARK INTER + INTRA:          -8.705
REMARK INTER:                  -8.248
REMARK INTRA:                  -0.457
REMARK UNBOUND:                -0.439
REMARK SMILES COc1cc(OC)c(NC(=O)C2=CNSN2)cc1Cl
REMARK SMILES IDX 5 1 4 2 3 3 18 4 17 5 8 6 19 7 6 8 7 9 9 10 10 11 11 12
REMARK SMILES IDX 12 14 13 15 16 16 14 17 15 18 2 21 1 22
REMARK H PARENT 9 13 16 19 14 20
ROOT
ATOM      1  C   UNL     1      50.455  51.328  19.648  1.00  0.00    +0.146 A 
ATOM      2  C   UNL     1      49.943  50.219  18.962  1.00  0.00    +0.096 A 
ATOM      3  C   UNL     1      49.140  50.394  17.830  1.00  0.00    +0.141 A 
ATOM      4  C   UNL     1      48.854  51.699  17.395  1.00  0.00    +0.085 A 
ATOM      5  C   UNL     1      49.359  52.811  18.075  1.00  0.00    +0.054 A 
ATOM      6  C   UNL     1      50.162  52.634  19.199  1.00  0.00    +0.085 A 
ATOM      7 Cl   UNL     1      47.861  51.982  16.006  1.00  0.00    -0.080 Cl
ENDROOT
BRANCH   1   8
ATOM      8  O   UNL     1      51.247  51.262  20.773  1.00  0.00    -0.494 OA
ATOM      9  C   UNL     1      52.571  50.767  20.612  1.00  0.00    +0.278 C 
ENDBRANCH   1   8
BRANCH   6  10
ATOM     10  N   UNL     1      50.711  53.701  19.946  1.00  0.00    -0.317 N 
ATOM     11  C   UNL     1      51.840  54.437  19.674  1.00  0.00    +0.274 C 
ATOM     12  O   UNL     1      52.626  54.273  18.745  1.00  0.00    -0.267 OA
ATOM     13  H   UNL     1      50.223  53.876  20.819  1.00  0.00    +0.170 HD
BRANCH  11  14
ATOM     14  C   UNL     1      52.120  55.515  20.671  1.00  0.00    +0.128 C 
ATOM     15  C   UNL     1      51.637  55.571  21.925  1.00  0.00    +0.123 C 
ATOM     16  N   UNL     1      52.795  56.670  20.269  1.00  0.00    -0.306 N 
ATOM     17  N   UNL     1      51.905  56.744  22.613  1.00  0.00    -0.317 N 
ATOM     18  S   UNL     1      52.582  57.810  21.488  1.00  0.00    +0.065 SA
ATOM     19  H   UNL     1      52.590  56.907  19.298  1.00  0.00    +0.177 HD
ATOM     20  H   UNL     1      51.131  57.085  23.178  1.00  0.00    +0.176 HD
ENDBRANCH  11  14
ENDBRANCH   6  10
BRANCH   3  21
ATOM     21  O   UNL     1      48.594  49.370  17.098  1.00  0.00    -0.495 OA
ATOM     22  C   UNL     1      48.669  48.054  17.629  1.00  0.00    +0.278 C 
ENDBRANCH   3  21
TORSDOF 4
ENDMDL
MODEL 3
REMARK VINA RESULT:    -6.465      5.407      8.541
REMARK INTER + INTRA:          -8.415
REMARK INTER:                  -8.005
REMARK INTRA:                  -0.410
REMARK UNBOUND:                -0.439
REMARK SMILES COc1cc(OC)c(NC(=O)C2=CNSN2)cc1Cl
REMARK SMILES IDX 5 1 4 2 3 3 18 4 17 5 8 6 19 7 6 8 7 9 9 10 10 11 11 12
REMARK SMILES IDX 12 14 13 15 16 16 14 17 15 18 2 21 1 22
REMARK H PARENT 9 13 16 19 14 20
ROOT
ATOM      1  C   UNL     1      51.653  53.432  19.531  1.00  0.00    +0.146 A 
ATOM      2  C   UNL     1      51.908  54.270  20.626  1.00  0.00    +0.096 A 
ATOM      3  C   UNL     1      50.979  55.246  21.003  1.00  0.00    +0.141 A 
ATOM      4  C   UNL     1      49.791  55.374  20.265  1.00  0.00    +0.085 A 
ATOM      5  C   UNL     1      49.529  54.544  19.171  1.00  0.00    +0.054 A 
ATOM      6  C   UNL     1      50.453  53.570  18.801  1.00  0.00    +0.085 A 
ATOM      7 Cl   UNL     1      48.606  56.567  20.677  1.00  0.00    -0.080 Cl
ENDROOT
BRANCH   1   8
ATOM      8  O   UNL     1      52.503  52.448  19.078  1.00  0.00    -0.494 OA
ATOM      9  C   UNL     1      52.701  51.317  19.917  1.00  0.00    +0.278 C 
ENDBRANCH   1   8
BRANCH   6  10
ATOM     10  N   UNL     1      50.271  52.691  17.708  1.00  0.00    -0.317 N 
ATOM     11  C   UNL     1      49.729  51.428  17.715  1.00  0.00    +0.274 C 
ATOM     12  O   UNL     1      49.340  50.792  18.691  1.00  0.00    -0.267 OA
ATOM     13  H   UNL     1      50.658  53.043  16.838  1.00  0.00    +0.170 HD
BRANCH  11  14
ATOM     14  C   UNL     1      49.665  50.785  16.366  1.00  0.00    +0.128 C 
ATOM     15  C   UNL     1      48.543  50.397  15.732  1.00  0.00    +0.123 C 
ATOM     16  N   UNL     1      50.843  50.376  15.739  1.00  0.00    -0.306 N 
ATOM     17  N   UNL     1      48.740  49.682  14.562  1.00  0.00    -0.317 N 
ATOM     18  S   UNL     1      50.397  49.356  14.477  1.00  0.00    +0.065 SA
ATOM     19  H   UNL     1      51.548  50.082  16.417  1.00  0.00    +0.177 HD
ATOM     20  H   UNL     1      48.099  48.903  14.434  1.00  0.00    +0.176 HD
ENDBRANCH  11  14
ENDBRANCH   6  10
BRANCH   3  21
ATOM     21  O   UNL     1      51.145  56.110  22.055  1.00  0.00    -0.495 OA
ATOM     22  C   UNL     1      52.145  57.113  21.948  1.00  0.00    +0.278 C 
ENDBRANCH   3  21
TORSDOF 4
ENDMDL
MODEL 4
REMARK VINA RESULT:    -6.462      2.552      3.468
REMARK INTER + INTRA:          -8.411
REMARK INTER:                  -7.981
REMARK INTRA:                  -0.430
REMARK UNBOUND:                -0.439
REMARK SMILES COc1cc(OC)c(NC(=O)C2=CNSN2)cc1Cl
REMARK SMILES IDX 5 1 4 2 3 3 18 4 17 5 8 6 19 7 6 8 7 9 9 10 10 11 11 12
REMARK SMILES IDX 12 14 13 15 16 16 14 17 15 18 2 21 1 22
REMARK H PARENT 9 13 16 19 14 20
ROOT
ATOM      1  C   UNL     1      48.169  48.567  16.567  1.00  0.00    +0.146 A 
ATOM      2  C   UNL     1      47.168  47.711  16.089  1.00  0.00    +0.096 A 
ATOM      3  C   UNL     1      46.135  47.287  16.934  1.00  0.00    +0.141 A 
ATOM      4  C   UNL     1      46.122  47.732  18.266  1.00  0.00    +0.085 A 
ATOM      5  C   UNL     1      47.118  48.585  18.751  1.00  0.00    +0.054 A 
ATOM      6  C   UNL     1      48.142  49.009  17.907  1.00  0.00    +0.085 A 
ATOM      7 Cl   UNL     1      44.876  47.238  19.362  1.00  0.00    -0.080 Cl
ENDROOT
BRANCH   1   8
ATOM      8  O   UNL     1      49.227  49.035  15.819  1.00  0.00    -0.494 OA
ATOM      9  C   UNL     1      48.926  49.662  14.579  1.00  0.00    +0.278 C 
ENDBRANCH   1   8
BRANCH   6  10
ATOM     10  N   UNL     1      49.189  49.867  18.314  1.00  0.00    -0.317 N 
ATOM     11  C   UNL     1      50.198  49.611  19.213  1.00  0.00    +0.274 C 
ATOM     12  O   UNL     1      50.355  48.593  19.881  1.00  0.00    -0.267 OA
ATOM     13  H   UNL     1      49.120  50.801  17.923  1.00  0.00    +0.170 HD
BRANCH  11  14
ATOM     14  C   UNL     1      51.158  50.743  19.390  1.00  0.00    +0.128 C 
ATOM     15  C   UNL     1      51.438  51.362  20.551  1.00  0.00    +0.123 C 
ATOM     16  N   UNL     1      51.713  51.361  18.268  1.00  0.00    -0.306 N 
ATOM     17  N   UNL     1      52.241  52.487  20.446  1.00  0.00    -0.317 N 
ATOM     18  S   UNL     1      52.396  52.806  18.792  1.00  0.00    +0.065 SA
ATOM     19  H   UNL     1      51.069  51.351  17.475  1.00  0.00    +0.177 HD
ATOM     20  H   UNL     1      51.965  53.257  21.051  1.00  0.00    +0.176 HD
ENDBRANCH  11  14
ENDBRANCH   6  10
BRANCH   3  21
ATOM     21  O   UNL     1      45.117  46.450  16.555  1.00  0.00    -0.495 OA
ATOM     22  C   UNL     1      44.130  46.954  15.666  1.00  0.00    +0.278 C 
ENDBRANCH   3  21
TORSDOF 4
ENDMDL
MODEL 5
REMARK VINA RESULT:    -6.171      4.026      7.145
REMARK INTER + INTRA:          -8.053
REMARK INTER:                  -7.599
REMARK INTRA:                  -0.454
REMARK UNBOUND:                -0.439
REMARK SMILES COc1cc(OC)c(NC(=O)C2=CNSN2)cc1Cl
REMARK SMILES IDX 5 1 4 2 3 3 18 4 17 5 8 6 19 7 6 8 7 9 9 10 10 11 11 12
REMARK SMILES IDX 12 14 13 15 16 16 14 17 15 18 2 21 1 22
REMARK H PARENT 9 13 16 19 14 20
ROOT
ATOM      1  C   UNL     1      49.030  51.027  17.312  1.00  0.00    +0.146 A 
ATOM      2  C   UNL     1      49.887  51.692  18.200  1.00  0.00    +0.096 A 
ATOM      3  C   UNL     1      50.364  51.042  19.344  1.00  0.00    +0.141 A 
ATOM      4  C   UNL     1      49.968  49.717  19.588  1.00  0.00    +0.085 A 
ATOM      5  C   UNL     1      49.113  49.047  18.708  1.00  0.00    +0.054 A 
ATOM      6  C   UNL     1      48.642  49.694  17.568  1.00  0.00    +0.085 A 
ATOM      7 Cl   UNL     1      50.519  48.861  20.988  1.00  0.00    -0.080 Cl
ENDROOT
BRANCH   1   8
ATOM      8  O   UNL     1      48.503  51.579  16.166  1.00  0.00    -0.494 OA
ATOM      9  C   UNL     1      47.836  52.829  16.288  1.00  0.00    +0.278 C 
ENDBRANCH   1   8
BRANCH   6  10
ATOM     10  N   UNL     1      47.773  49.095  16.628  1.00  0.00    -0.317 N 
ATOM     11  C   UNL     1      46.401  49.019  16.666  1.00  0.00    +0.274 C 
ATOM     12  O   UNL     1      45.661  49.417  17.561  1.00  0.00    -0.267 OA
ATOM     13  H   UNL     1      48.260  48.615  15.877  1.00  0.00    +0.170 HD
BRANCH  11  14
ATOM     14  C   UNL     1      45.795  48.329  15.485  1.00  0.00    +0.128 C 
ATOM     15  C   UNL     1      46.359  48.212  14.270  1.00  0.00    +0.123 C 
ATOM     16  N   UNL     1      44.467  47.901  15.541  1.00  0.00    -0.306 N 
ATOM     17  N   UNL     1      45.545  47.669  13.288  1.00  0.00    -0.317 N 
ATOM     18  S   UNL     1      43.998  47.557  13.963  1.00  0.00    +0.065 SA
ATOM     19  H   UNL     1      43.899  48.513  16.128  1.00  0.00    +0.177 HD
ATOM     20  H   UNL     1      45.631  48.116  12.378  1.00  0.00    +0.176 HD
ENDBRANCH  11  14
ENDBRANCH   6  10
BRANCH   3  21
ATOM     21  O   UNL     1      51.202  51.613  20.268  1.00  0.00    -0.495 OA
ATOM     22  C   UNL     1      52.414  52.192  19.806  1.00  0.00    +0.278 C 
ENDBRANCH   3  21
TORSDOF 4
ENDMDL
