MODEL 1
REMARK VINA RESULT:    -6.690      0.000      0.000
REMARK INTER + INTRA:          -9.176
REMARK INTER:                  -8.841
REMARK INTRA:                  -0.334
REMARK UNBOUND:                -0.334
REMARK SMILES C/C=C/c1ccc(OCCO)c(OC)c1
REMARK SMILES IDX 8 1 7 2 4 3 5 4 15 5 6 6 12 7 3 8 2 9 1 10 13 11 14 12 9 13
REMARK SMILES IDX 10 14 11 15
REMARK H PARENT 11 16
ROOT
ATOM      1  O   UNL     1      51.979  54.149  21.396  1.00  0.00    -0.487 OA
ENDROOT
BRANCH   1   2
ATOM      2  C   UNL     1      50.969  55.053  21.188  1.00  0.00    +0.161 A 
ATOM      3  C   UNL     1      49.019  57.062  20.852  1.00  0.00    -0.022 A 
ATOM      4  C   UNL     1      48.813  55.778  20.343  1.00  0.00    +0.012 A 
ATOM      5  C   UNL     1      50.202  57.333  21.551  1.00  0.00    +0.058 A 
ATOM      6  C   UNL     1      49.782  54.782  20.504  1.00  0.00    +0.051 A 
ATOM      7  C   UNL     1      51.180  56.342  21.718  1.00  0.00    +0.161 A 
BRANCH   3   8
ATOM      8  C   UNL     1      47.962  58.069  20.683  1.00  0.00    +0.003 C 
ATOM      9  C   UNL     1      47.883  58.906  19.636  1.00  0.00    -0.030 C 
ATOM     10  C   UNL     1      46.799  59.920  19.468  1.00  0.00    +0.035 C 
ENDBRANCH   3   8
BRANCH   7  11
ATOM     11  O   UNL     1      52.367  56.530  22.384  1.00  0.00    -0.493 OA
ATOM     12  C   UNL     1      53.260  57.511  21.878  1.00  0.00    +0.278 C 
ENDBRANCH   7  11
ENDBRANCH   1   2
BRANCH   1  13
ATOM     13  C   UNL     1      51.685  52.880  21.967  1.00  0.00    +0.258 C 
BRANCH  13  14
ATOM     14  C   UNL     1      52.012  51.742  21.003  1.00  0.00    +0.197 C 
BRANCH  14  15
ATOM     15  O   UNL     1      52.693  50.686  21.671  1.00  0.00    -0.393 OA
ATOM     16  H   UNL     1      52.980  50.046  20.996  1.00  0.00    +0.210 HD
ENDBRANCH  14  15
ENDBRANCH  13  14
ENDBRANCH   1  13
TORSDOF 6
ENDMDL
MODEL 2
REMARK VINA RESULT:    -6.176      2.753      4.248
REMARK INTER + INTRA:          -8.497
REMARK INTER:                  -8.129
REMARK INTRA:                  -0.367
REMARK UNBOUND:                -0.334
REMARK SMILES C/C=C/c1ccc(OCCO)c(OC)c1
REMARK SMILES IDX 8 1 7 2 4 3 5 4 15 5 6 6 12 7 3 8 2 9 1 10 13 11 14 12 9 13
REMARK SMILES IDX 10 14 11 15
REMARK H PARENT 11 16
ROOT
ATOM      1  O   UNL     1      51.154  51.377  18.710  1.00  0.00    -0.487 OA
ENDROOT
BRANCH   1   2
ATOM      2  C   UNL     1      50.546  52.527  19.144  1.00  0.00    +0.161 A 
ATOM      3  C   UNL     1      49.160  54.873  19.868  1.00  0.00    -0.022 A 
ATOM      4  C   UNL     1      50.177  54.367  20.682  1.00  0.00    +0.012 A 
ATOM      5  C   UNL     1      48.852  54.208  18.674  1.00  0.00    +0.058 A 
ATOM      6  C   UNL     1      50.861  53.200  20.327  1.00  0.00    +0.051 A 
ATOM      7  C   UNL     1      49.531  53.038  18.309  1.00  0.00    +0.161 A 
BRANCH   3   8
ATOM      8  C   UNL     1      48.487  56.117  20.267  1.00  0.00    +0.003 C 
ATOM      9  C   UNL     1      49.035  57.041  21.072  1.00  0.00    -0.030 C 
ATOM     10  C   UNL     1      48.347  58.308  21.465  1.00  0.00    +0.035 C 
ENDBRANCH   3   8
BRANCH   7  11
ATOM     11  O   UNL     1      49.284  52.324  17.161  1.00  0.00    -0.493 OA
ATOM     12  C   UNL     1      48.035  51.656  17.054  1.00  0.00    +0.278 C 
ENDBRANCH   7  11
ENDBRANCH   1   2
BRANCH   1  13
ATOM     13  C   UNL     1      51.214  50.242  19.567  1.00  0.00    +0.258 C 
BRANCH  13  14
ATOM     14  C   UNL     1      52.652  49.777  19.780  1.00  0.00    +0.197 C 
BRANCH  14  15
ATOM     15  O   UNL     1      52.696  48.398  20.134  1.00  0.00    -0.393 OA
ATOM     16  H   UNL     1      53.627  48.118  20.117  1.00  0.00    +0.210 HD
ENDBRANCH  14  15
ENDBRANCH  13  14
ENDBRANCH   1  13
TORSDOF 6
ENDMDL
MODEL 3
REMARK VINA RESULT:    -6.070      2.639      3.904
REMARK INTER + INTRA:          -8.356
REMARK INTER:                  -7.711
REMARK INTRA:                  -0.645
REMARK UNBOUND:                -0.334
REMARK SMILES C/C=C/c1ccc(OCCO)c(OC)c1
REMARK SMILES IDX 8 1 7 2 4 3 5 4 15 5 6 6 12 7 3 8 2 9 1 10 13 11 14 12 9 13
REMARK SMILES IDX 10 14 11 15
REMARK H PARENT 11 16
ROOT
ATOM      1  O   UNL     1      50.589  51.199  17.945  1.00  0.00    -0.487 OA
ENDROOT
BRANCH   1   2
ATOM      2  C   UNL     1      50.026  52.348  18.439  1.00  0.00    +0.161 A 
ATOM      3  C   UNL     1      49.011  54.699  19.619  1.00  0.00    -0.022 A 
ATOM      4  C   UNL     1      48.533  54.260  18.382  1.00  0.00    +0.012 A 
ATOM      5  C   UNL     1      49.989  53.941  20.276  1.00  0.00    +0.058 A 
ATOM      6  C   UNL     1      49.040  53.097  17.793  1.00  0.00    +0.051 A 
ATOM      7  C   UNL     1      50.504  52.775  19.694  1.00  0.00    +0.161 A 
BRANCH   3   8
ATOM      8  C   UNL     1      48.429  55.911  20.214  1.00  0.00    +0.003 C 
ATOM      9  C   UNL     1      49.150  56.879  20.801  1.00  0.00    -0.030 C 
ATOM     10  C   UNL     1      48.552  58.113  21.394  1.00  0.00    +0.035 C 
ENDBRANCH   3   8
BRANCH   7  11
ATOM     11  O   UNL     1      51.468  51.982  20.270  1.00  0.00    -0.493 OA
ATOM     12  C   UNL     1      51.655  52.083  21.674  1.00  0.00    +0.278 C 
ENDBRANCH   7  11
ENDBRANCH   1   2
BRANCH   1  13
ATOM     13  C   UNL     1      49.781  50.044  17.748  1.00  0.00    +0.258 C 
BRANCH  13  14
ATOM     14  C   UNL     1      49.733  49.174  19.002  1.00  0.00    +0.197 C 
BRANCH  14  15
ATOM     15  O   UNL     1      51.038  48.972  19.533  1.00  0.00    -0.393 OA
ATOM     16  H   UNL     1      51.187  48.012  19.593  1.00  0.00    +0.210 HD
ENDBRANCH  14  15
ENDBRANCH  13  14
ENDBRANCH   1  13
TORSDOF 6
ENDMDL
MODEL 4
REMARK VINA RESULT:    -5.438      2.918      4.386
REMARK INTER + INTRA:          -7.521
REMARK INTER:                  -7.219
REMARK INTRA:                  -0.302
REMARK UNBOUND:                -0.334
REMARK SMILES C/C=C/c1ccc(OCCO)c(OC)c1
REMARK SMILES IDX 8 1 7 2 4 3 5 4 15 5 6 6 12 7 3 8 2 9 1 10 13 11 14 12 9 13
REMARK SMILES IDX 10 14 11 15
REMARK H PARENT 11 16
ROOT
ATOM      1  O   UNL     1      49.236  55.216  18.491  1.00  0.00    -0.487 OA
ENDROOT
BRANCH   1   2
ATOM      2  C   UNL     1      48.606  56.388  18.823  1.00  0.00    +0.161 A 
ATOM      3  C   UNL     1      47.270  58.826  19.291  1.00  0.00    -0.022 A 
ATOM      4  C   UNL     1      47.718  58.043  20.358  1.00  0.00    +0.012 A 
ATOM      5  C   UNL     1      47.512  58.391  17.982  1.00  0.00    +0.058 A 
ATOM      6  C   UNL     1      48.375  56.831  20.127  1.00  0.00    +0.051 A 
ATOM      7  C   UNL     1      48.170  57.178  17.739  1.00  0.00    +0.161 A 
BRANCH   3   8
ATOM      8  C   UNL     1      46.608  60.106  19.581  1.00  0.00    +0.003 C 
ATOM      9  C   UNL     1      47.127  61.305  19.274  1.00  0.00    -0.030 C 
ATOM     10  C   UNL     1      46.443  62.602  19.564  1.00  0.00    +0.035 C 
ENDBRANCH   3   8
BRANCH   7  11
ATOM     11  O   UNL     1      48.439  56.679  16.487  1.00  0.00    -0.493 OA
ATOM     12  C   UNL     1      47.441  56.827  15.488  1.00  0.00    +0.278 C 
ENDBRANCH   7  11
ENDBRANCH   1   2
BRANCH   1  13
ATOM     13  C   UNL     1      50.566  54.978  18.940  1.00  0.00    +0.258 C 
BRANCH  13  14
ATOM     14  C   UNL     1      50.972  53.519  18.739  1.00  0.00    +0.197 C 
BRANCH  14  15
ATOM     15  O   UNL     1      52.270  53.425  18.162  1.00  0.00    -0.393 OA
ATOM     16  H   UNL     1      52.902  53.259  18.883  1.00  0.00    +0.210 HD
ENDBRANCH  14  15
ENDBRANCH  13  14
ENDBRANCH   1  13
TORSDOF 6
ENDMDL
MODEL 5
REMARK VINA RESULT:    -5.419      6.559      8.697
REMARK INTER + INTRA:          -7.495
REMARK INTER:                  -7.158
REMARK INTRA:                  -0.337
REMARK UNBOUND:                -0.334
REMARK SMILES C/C=C/c1ccc(OCCO)c(OC)c1
REMARK SMILES IDX 8 1 7 2 4 3 5 4 15 5 6 6 12 7 3 8 2 9 1 10 13 11 14 12 9 13
REMARK SMILES IDX 10 14 11 15
REMARK H PARENT 11 16
ROOT
ATOM      1  O   UNL     1      50.379  49.716  18.542  1.00  0.00    -0.487 OA
ENDROOT
BRANCH   1   2
ATOM      2  C   UNL     1      49.140  49.416  18.037  1.00  0.00    +0.161 A 
ATOM      3  C   UNL     1      46.672  48.842  16.801  1.00  0.00    -0.022 A 
ATOM      4  C   UNL     1      46.842  48.647  18.174  1.00  0.00    +0.012 A 
ATOM      5  C   UNL     1      47.740  49.347  16.049  1.00  0.00    +0.058 A 
ATOM      6  C   UNL     1      48.068  48.926  18.787  1.00  0.00    +0.051 A 
ATOM      7  C   UNL     1      48.972  49.630  16.654  1.00  0.00    +0.161 A 
BRANCH   3   8
ATOM      8  C   UNL     1      45.358  48.562  16.205  1.00  0.00    +0.003 C 
ATOM      9  C   UNL     1      45.058  47.430  15.547  1.00  0.00    -0.030 C 
ATOM     10  C   UNL     1      43.717  47.150  14.952  1.00  0.00    +0.035 C 
ENDBRANCH   3   8
BRANCH   7  11
ATOM     11  O   UNL     1      50.069  50.120  15.986  1.00  0.00    -0.493 OA
ATOM     12  C   UNL     1      50.259  49.713  14.639  1.00  0.00    +0.278 C 
ENDBRANCH   7  11
ENDBRANCH   1   2
BRANCH   1  13
ATOM     13  C   UNL     1      50.513  50.736  19.526  1.00  0.00    +0.258 C 
BRANCH  13  14
ATOM     14  C   UNL     1      51.539  50.355  20.591  1.00  0.00    +0.197 C 
BRANCH  14  15
ATOM     15  O   UNL     1      50.914  49.705  21.692  1.00  0.00    -0.393 OA
ATOM     16  H   UNL     1      50.579  50.395  22.291  1.00  0.00    +0.210 HD
ENDBRANCH  14  15
ENDBRANCH  13  14
ENDBRANCH   1  13
TORSDOF 6
ENDMDL
