MODEL 1
REMARK VINA RESULT:    -7.141      0.000      0.000
REMARK INTER + INTRA:          -7.559
REMARK INTER:                  -7.559
REMARK INTRA:                   0.000
REMARK UNBOUND:                 0.000
REMARK SMILES CC(=O)N1CCC2(CC1)C(C#N)=C(N)SC(N)=C2C#N
REMARK SMILES IDX 1 1 2 2 3 3 4 4 5 5 6 6 7 7 8 8 9 9 18 10 16 11 15 12 13 13
REMARK SMILES IDX 10 14 11 15 12 16 19 17 20 18 17 19 14 22
REMARK H PARENT 17 20 17 21 14 23 14 24
ROOT
ATOM      1  C   UNL     1      54.555  57.917  21.418  1.00  0.00    +0.114 C 
ATOM      2  C   UNL     1      53.064  58.148  21.401  1.00  0.00    +0.219 C 
ATOM      3  O   UNL     1      52.586  59.153  21.926  1.00  0.00    -0.275 OA
ATOM      4  N   UNL     1      52.285  57.189  20.764  1.00  0.00    -0.343 N 
ATOM      5  C   UNL     1      52.837  56.035  20.061  1.00  0.00    +0.121 C 
ATOM      6  C   UNL     1      51.834  55.414  19.093  1.00  0.00    +0.040 C 
ATOM      7  C   UNL     1      50.502  54.976  19.781  1.00  0.00    +0.049 C 
ATOM      8  C   UNL     1      50.152  55.982  20.948  1.00  0.00    +0.040 C 
ATOM      9  C   UNL     1      50.833  57.343  20.780  1.00  0.00    +0.121 C 
ATOM     10  C   UNL     1      49.382  55.019  18.701  1.00  0.00    +0.071 C 
ATOM     11  C   UNL     1      49.062  53.984  17.887  1.00  0.00    +0.087 C 
ATOM     12  S   UNL     1      50.003  52.512  17.929  1.00  0.00    -0.053 SA
ATOM     13  C   UNL     1      50.410  52.407  19.628  1.00  0.00    +0.087 C 
ATOM     14  C   UNL     1      50.668  53.534  20.337  1.00  0.00    +0.071 C 
ATOM     15  C   UNL     1      51.172  53.358  21.667  1.00  0.00    +0.098 C 
ATOM     16  N   UNL     1      51.623  53.200  22.725  1.00  0.00    -0.193 NA
ATOM     17  C   UNL     1      48.655  56.242  18.523  1.00  0.00    +0.098 C 
ATOM     18  N   UNL     1      48.055  57.227  18.404  1.00  0.00    -0.193 NA
ENDROOT
BRANCH  11  19
ATOM     19  N   UNL     1      48.059  54.041  16.933  1.00  0.00    -0.392 N 
ATOM     20  H   UNL     1      48.290  53.657  16.019  1.00  0.00    +0.157 HD
ATOM     21  H   UNL     1      47.651  54.972  16.871  1.00  0.00    +0.157 HD
ENDBRANCH  11  19
BRANCH  13  22
ATOM     22  N   UNL     1      50.536  51.126  20.140  1.00  0.00    -0.392 N 
ATOM     23  H   UNL     1      49.813  50.817  20.785  1.00  0.00    +0.157 HD
ATOM     24  H   UNL     1      51.476  50.947  20.490  1.00  0.00    +0.157 HD
ENDBRANCH  13  22
TORSDOF 2
ENDMDL
MODEL 2
REMARK VINA RESULT:    -6.649      1.784      2.467
REMARK INTER + INTRA:          -7.038
REMARK INTER:                  -7.038
REMARK INTRA:                   0.000
REMARK UNBOUND:                 0.000
REMARK SMILES CC(=O)N1CCC2(CC1)C(C#N)=C(N)SC(N)=C2C#N
REMARK SMILES IDX 1 1 2 2 3 3 4 4 5 5 6 6 7 7 8 8 9 9 18 10 16 11 15 12 13 13
REMARK SMILES IDX 10 14 11 15 12 16 19 17 20 18 17 19 14 22
REMARK H PARENT 17 20 17 21 14 23 14 24
ROOT
ATOM      1  C   UNL     1      52.046  58.204  20.964  1.00  0.00    +0.114 C 
ATOM      2  C   UNL     1      50.739  57.540  20.607  1.00  0.00    +0.219 C 
ATOM      3  O   UNL     1      49.678  58.147  20.748  1.00  0.00    -0.275 OA
ATOM      4  N   UNL     1      50.805  56.242  20.115  1.00  0.00    -0.343 N 
ATOM      5  C   UNL     1      52.057  55.536  19.862  1.00  0.00    +0.121 C 
ATOM      6  C   UNL     1      51.871  54.346  18.925  1.00  0.00    +0.040 C 
ATOM      7  C   UNL     1      50.822  53.311  19.444  1.00  0.00    +0.049 C 
ATOM      8  C   UNL     1      49.668  54.066  20.213  1.00  0.00    +0.040 C 
ATOM      9  C   UNL     1      49.559  55.541  19.819  1.00  0.00    +0.121 C 
ATOM     10  C   UNL     1      50.232  52.581  18.202  1.00  0.00    +0.071 C 
ATOM     11  C   UNL     1      50.758  51.462  17.649  1.00  0.00    +0.087 C 
ATOM     12  S   UNL     1      52.259  50.806  18.256  1.00  0.00    -0.053 SA
ATOM     13  C   UNL     1      52.124  51.151  19.967  1.00  0.00    +0.087 C 
ATOM     14  C   UNL     1      51.532  52.297  20.385  1.00  0.00    +0.071 C 
ATOM     15  C   UNL     1      51.622  52.598  21.784  1.00  0.00    +0.098 C 
ATOM     16  N   UNL     1      51.744  52.849  22.910  1.00  0.00    -0.193 NA
ATOM     17  C   UNL     1      49.071  53.140  17.572  1.00  0.00    +0.098 C 
ATOM     18  N   UNL     1      48.118  53.586  17.084  1.00  0.00    -0.193 NA
ENDROOT
BRANCH  11  19
ATOM     19  N   UNL     1      50.216  50.825  16.544  1.00  0.00    -0.392 N 
ATOM     20  H   UNL     1      49.325  50.354  16.693  1.00  0.00    +0.157 HD
ATOM     21  H   UNL     1      50.899  50.226  16.083  1.00  0.00    +0.157 HD
ENDBRANCH  11  19
BRANCH  13  22
ATOM     22  N   UNL     1      52.732  50.241  20.816  1.00  0.00    -0.392 N 
ATOM     23  H   UNL     1      53.057  50.596  21.712  1.00  0.00    +0.157 HD
ATOM     24  H   UNL     1      53.438  49.686  20.335  1.00  0.00    +0.157 HD
ENDBRANCH  13  22
TORSDOF 2
ENDMDL
MODEL 3
REMARK VINA RESULT:    -6.455      2.052      4.157
REMARK INTER + INTRA:          -6.833
REMARK INTER:                  -6.833
REMARK INTRA:                   0.000
REMARK UNBOUND:                 0.000
REMARK SMILES CC(=O)N1CCC2(CC1)C(C#N)=C(N)SC(N)=C2C#N
REMARK SMILES IDX 1 1 2 2 3 3 4 4 5 5 6 6 7 7 8 8 9 9 18 10 16 11 15 12 13 13
REMARK SMILES IDX 10 14 11 15 12 16 19 17 20 18 17 19 14 22
REMARK H PARENT 17 20 17 21 14 23 14 24
ROOT
ATOM      1  C   UNL     1      49.137  58.279  22.155  1.00  0.00    +0.114 C 
ATOM      2  C   UNL     1      50.356  57.688  21.490  1.00  0.00    +0.219 C 
ATOM      3  O   UNL     1      51.469  58.173  21.694  1.00  0.00    -0.275 OA
ATOM      4  N   UNL     1      50.153  56.589  20.664  1.00  0.00    -0.343 N 
ATOM      5  C   UNL     1      48.856  55.948  20.476  1.00  0.00    +0.121 C 
ATOM      6  C   UNL     1      48.985  54.537  19.908  1.00  0.00    +0.040 C 
ATOM      7  C   UNL     1      49.757  54.487  18.551  1.00  0.00    +0.049 C 
ATOM      8  C   UNL     1      50.889  55.588  18.544  1.00  0.00    +0.040 C 
ATOM      9  C   UNL     1      51.298  56.027  19.952  1.00  0.00    +0.121 C 
ATOM     10  C   UNL     1      50.402  53.075  18.433  1.00  0.00    +0.071 C 
ATOM     11  C   UNL     1      49.790  51.996  17.889  1.00  0.00    +0.087 C 
ATOM     12  S   UNL     1      48.126  52.103  17.366  1.00  0.00    -0.053 SA
ATOM     13  C   UNL     1      48.053  53.746  16.768  1.00  0.00    +0.087 C 
ATOM     14  C   UNL     1      48.755  54.727  17.388  1.00  0.00    +0.071 C 
ATOM     15  C   UNL     1      48.503  56.071  16.958  1.00  0.00    +0.098 C 
ATOM     16  N   UNL     1      48.254  57.157  16.631  1.00  0.00    -0.193 NA
ATOM     17  C   UNL     1      51.721  52.882  18.961  1.00  0.00    +0.098 C 
ATOM     18  N   UNL     1      52.798  52.743  19.369  1.00  0.00    -0.193 NA
ENDROOT
BRANCH  11  19
ATOM     19  N   UNL     1      50.382  50.747  17.790  1.00  0.00    -0.392 N 
ATOM     20  H   UNL     1      49.932  50.088  17.157  1.00  0.00    +0.157 HD
ATOM     21  H   UNL     1      50.561  50.342  18.707  1.00  0.00    +0.157 HD
ENDBRANCH  11  19
BRANCH  13  22
ATOM     22  N   UNL     1      47.181  53.967  15.714  1.00  0.00    -0.392 N 
ATOM     23  H   UNL     1      46.680  54.852  15.712  1.00  0.00    +0.157 HD
ATOM     24  H   UNL     1      46.568  53.169  15.555  1.00  0.00    +0.157 HD
ENDBRANCH  13  22
TORSDOF 2
ENDMDL
MODEL 4
REMARK VINA RESULT:    -6.080      2.978      4.879
REMARK INTER + INTRA:          -6.435
REMARK INTER:                  -6.435
REMARK INTRA:                   0.000
REMARK UNBOUND:                 0.000
REMARK SMILES CC(=O)N1CCC2(CC1)C(C#N)=C(N)SC(N)=C2C#N
REMARK SMILES IDX 1 1 2 2 3 3 4 4 5 5 6 6 7 7 8 8 9 9 18 10 16 11 15 12 13 13
REMARK SMILES IDX 10 14 11 15 12 16 19 17 20 18 17 19 14 22
REMARK H PARENT 17 20 17 21 14 23 14 24
ROOT
ATOM      1  C   UNL     1      51.022  50.825  20.648  1.00  0.00    +0.114 C 
ATOM      2  C   UNL     1      51.169  51.715  19.439  1.00  0.00    +0.219 C 
ATOM      3  O   UNL     1      51.789  51.322  18.452  1.00  0.00    -0.275 OA
ATOM      4  N   UNL     1      50.568  52.967  19.503  1.00  0.00    -0.343 N 
ATOM      5  C   UNL     1      49.757  53.419  20.629  1.00  0.00    +0.121 C 
ATOM      6  C   UNL     1      48.867  54.603  20.262  1.00  0.00    +0.040 C 
ATOM      7  C   UNL     1      49.666  55.828  19.712  1.00  0.00    +0.049 C 
ATOM      8  C   UNL     1      50.910  55.320  18.881  1.00  0.00    +0.040 C 
ATOM      9  C   UNL     1      50.740  53.884  18.379  1.00  0.00    +0.121 C 
ATOM     10  C   UNL     1      48.709  56.630  18.782  1.00  0.00    +0.071 C 
ATOM     11  C   UNL     1      47.882  57.617  19.201  1.00  0.00    +0.087 C 
ATOM     12  S   UNL     1      47.756  57.992  20.903  1.00  0.00    -0.053 SA
ATOM     13  C   UNL     1      49.396  57.714  21.444  1.00  0.00    +0.087 C 
ATOM     14  C   UNL     1      50.130  56.709  20.905  1.00  0.00    +0.071 C 
ATOM     15  C   UNL     1      51.392  56.426  21.524  1.00  0.00    +0.098 C 
ATOM     16  N   UNL     1      52.388  56.180  22.065  1.00  0.00    -0.193 NA
ATOM     17  C   UNL     1      48.666  56.286  17.390  1.00  0.00    +0.098 C 
ATOM     18  N   UNL     1      48.658  56.018  16.261  1.00  0.00    -0.193 NA
ENDROOT
BRANCH  11  19
ATOM     19  N   UNL     1      47.039  58.323  18.356  1.00  0.00    -0.392 N 
ATOM     20  H   UNL     1      47.390  58.493  17.415  1.00  0.00    +0.157 HD
ATOM     21  H   UNL     1      46.688  59.170  18.798  1.00  0.00    +0.157 HD
ENDBRANCH  11  19
BRANCH  13  22
ATOM     22  N   UNL     1      49.829  58.511  22.491  1.00  0.00    -0.392 N 
ATOM     23  H   UNL     1      50.246  58.035  23.288  1.00  0.00    +0.157 HD
ATOM     24  H   UNL     1      49.124  59.192  22.767  1.00  0.00    +0.157 HD
ENDBRANCH  13  22
TORSDOF 2
ENDMDL
MODEL 5
REMARK VINA RESULT:    -5.766      8.864     11.895
REMARK INTER + INTRA:          -6.103
REMARK INTER:                  -6.103
REMARK INTRA:                   0.000
REMARK UNBOUND:                 0.000
REMARK SMILES CC(=O)N1CCC2(CC1)C(C#N)=C(N)SC(N)=C2C#N
REMARK SMILES IDX 1 1 2 2 3 3 4 4 5 5 6 6 7 7 8 8 9 9 18 10 16 11 15 12 13 13
REMARK SMILES IDX 10 14 11 15 12 16 19 17 20 18 17 19 14 22
REMARK H PARENT 17 20 17 21 14 23 14 24
ROOT
ATOM      1  C   UNL     1      40.130  60.177  17.434  1.00  0.00    +0.114 C 
ATOM      2  C   UNL     1      41.336  60.115  18.339  1.00  0.00    +0.219 C 
ATOM      3  O   UNL     1      41.379  59.299  19.259  1.00  0.00    -0.275 OA
ATOM      4  N   UNL     1      42.371  61.003  18.071  1.00  0.00    -0.343 N 
ATOM      5  C   UNL     1      42.376  61.919  16.935  1.00  0.00    +0.121 C 
ATOM      6  C   UNL     1      43.776  62.437  16.616  1.00  0.00    +0.040 C 
ATOM      7  C   UNL     1      44.459  63.153  17.824  1.00  0.00    +0.049 C 
ATOM      8  C   UNL     1      44.021  62.453  19.171  1.00  0.00    +0.040 C 
ATOM      9  C   UNL     1      43.528  61.020  18.961  1.00  0.00    +0.121 C 
ATOM     10  C   UNL     1      45.999  63.014  17.640  1.00  0.00    +0.071 C 
ATOM     11  C   UNL     1      46.770  63.888  16.951  1.00  0.00    +0.087 C 
ATOM     12  S   UNL     1      46.033  65.223  16.097  1.00  0.00    -0.053 SA
ATOM     13  C   UNL     1      44.706  65.629  17.163  1.00  0.00    +0.087 C 
ATOM     14  C   UNL     1      44.043  64.651  17.828  1.00  0.00    +0.071 C 
ATOM     15  C   UNL     1      42.858  65.038  18.534  1.00  0.00    +0.098 C 
ATOM     16  N   UNL     1      41.875  65.359  19.062  1.00  0.00    -0.193 NA
ATOM     17  C   UNL     1      46.651  61.869  18.207  1.00  0.00    +0.098 C 
ATOM     18  N   UNL     1      47.175  60.954  18.690  1.00  0.00    -0.193 NA
ENDROOT
BRANCH  11  19
ATOM     19  N   UNL     1      48.140  63.749  16.801  1.00  0.00    -0.392 N 
ATOM     20  H   UNL     1      48.473  62.811  16.587  1.00  0.00    +0.157 HD
ATOM     21  H   UNL     1      48.648  64.174  17.575  1.00  0.00    +0.157 HD
ENDBRANCH  11  19
BRANCH  13  22
ATOM     22  N   UNL     1      44.343  66.966  17.193  1.00  0.00    -0.392 N 
ATOM     23  H   UNL     1      45.096  67.644  17.278  1.00  0.00    +0.157 HD
ATOM     24  H   UNL     1      43.583  67.139  17.849  1.00  0.00    +0.157 HD
ENDBRANCH  13  22
TORSDOF 2
ENDMDL
