MODEL 1
REMARK VINA RESULT:    -7.009      0.000      0.000
REMARK INTER + INTRA:          -9.635
REMARK INTER:                  -9.057
REMARK INTRA:                  -0.577
REMARK UNBOUND:                -0.577
REMARK SMILES C[C@@H](OCC1CC1)C(=O)Nc1ccc(C#N)cc1
REMARK SMILES IDX 1 1 2 2 8 3 9 4 10 5 11 7 12 8 18 9 13 10 17 11 14 12 15 13
REMARK SMILES IDX 16 14 3 15 4 16 5 17 6 18 7 19
REMARK H PARENT 10 6
ROOT
ATOM      1  C   UNL     1      52.482  51.060  18.959  1.00  0.00    +0.049 C 
ATOM      2  C   UNL     1      51.470  50.102  19.573  1.00  0.00    +0.204 C 
ENDROOT
BRANCH   2   3
ATOM      3  C   UNL     1      50.134  50.195  18.806  1.00  0.00    +0.253 C 
ATOM      4  O   UNL     1      49.667  51.273  18.451  1.00  0.00    -0.272 OA
ATOM      5  N   UNL     1      49.593  48.944  18.566  1.00  0.00    -0.324 N 
ATOM      6  H   UNL     1      50.130  48.187  18.984  1.00  0.00    +0.170 HD
BRANCH   5   7
ATOM      7  C   UNL     1      48.417  48.614  17.876  1.00  0.00    +0.041 A 
ATOM      8  C   UNL     1      48.386  48.226  16.535  1.00  0.00    +0.027 A 
ATOM      9  C   UNL     1      47.215  48.677  18.592  1.00  0.00    +0.027 A 
ATOM     10  C   UNL     1      47.170  47.908  15.916  1.00  0.00    +0.021 A 
ATOM     11  C   UNL     1      45.999  48.360  17.976  1.00  0.00    +0.021 A 
ATOM     12  C   UNL     1      45.974  47.974  16.634  1.00  0.00    +0.052 A 
ATOM     13  C   UNL     1      44.731  47.648  15.999  1.00  0.00    +0.099 C 
ATOM     14  N   UNL     1      43.721  47.386  15.492  1.00  0.00    -0.192 NA
ENDBRANCH   5   7
ENDBRANCH   2   3
BRANCH   2  15
ATOM     15  O   UNL     1      51.272  50.423  20.958  1.00  0.00    -0.368 OA
BRANCH  15  16
ATOM     16  C   UNL     1      51.995  51.580  21.381  1.00  0.00    +0.164 C 
BRANCH  16  17
ATOM     17  C   UNL     1      51.073  52.654  21.876  1.00  0.00    +0.015 C 
ATOM     18  C   UNL     1      51.553  54.069  22.085  1.00  0.00    +0.006 C 
ATOM     19  C   UNL     1      50.555  53.768  20.999  1.00  0.00    +0.006 C 
ENDBRANCH  16  17
ENDBRANCH  15  16
ENDBRANCH   2  15
TORSDOF 5
ENDMDL
MODEL 2
REMARK VINA RESULT:    -6.863      3.177      8.151
REMARK INTER + INTRA:          -9.447
REMARK INTER:                  -8.927
REMARK INTRA:                  -0.520
REMARK UNBOUND:                -0.577
REMARK SMILES C[C@@H](OCC1CC1)C(=O)Nc1ccc(C#N)cc1
REMARK SMILES IDX 1 1 2 2 8 3 9 4 10 5 11 7 12 8 18 9 13 10 17 11 14 12 15 13
REMARK SMILES IDX 16 14 3 15 4 16 5 17 6 18 7 19
REMARK H PARENT 10 6
ROOT
ATOM      1  C   UNL     1      50.529  48.958  20.874  1.00  0.00    +0.049 C 
ATOM      2  C   UNL     1      50.917  49.977  19.810  1.00  0.00    +0.204 C 
ENDROOT
BRANCH   2   3
ATOM      3  C   UNL     1      51.705  51.134  20.460  1.00  0.00    +0.253 C 
ATOM      4  O   UNL     1      52.768  50.944  21.042  1.00  0.00    -0.272 OA
ATOM      5  N   UNL     1      51.078  52.352  20.268  1.00  0.00    -0.324 N 
ATOM      6  H   UNL     1      50.183  52.273  19.788  1.00  0.00    +0.170 HD
BRANCH   5   7
ATOM      7  C   UNL     1      51.495  53.629  20.675  1.00  0.00    +0.041 A 
ATOM      8  C   UNL     1      51.403  54.094  21.989  1.00  0.00    +0.027 A 
ATOM      9  C   UNL     1      52.038  54.467  19.695  1.00  0.00    +0.027 A 
ATOM     10  C   UNL     1      51.845  55.382  22.318  1.00  0.00    +0.021 A 
ATOM     11  C   UNL     1      52.481  55.754  20.021  1.00  0.00    +0.021 A 
ATOM     12  C   UNL     1      52.385  56.215  21.336  1.00  0.00    +0.052 A 
ATOM     13  C   UNL     1      52.837  57.533  21.674  1.00  0.00    +0.099 C 
ATOM     14  N   UNL     1      53.205  58.601  21.941  1.00  0.00    -0.192 NA
ENDBRANCH   5   7
ENDBRANCH   2   3
BRANCH   2  15
ATOM     15  O   UNL     1      49.739  50.481  19.163  1.00  0.00    -0.368 OA
BRANCH  15  16
ATOM     16  C   UNL     1      49.585  50.014  17.821  1.00  0.00    +0.164 C 
BRANCH  16  17
ATOM     17  C   UNL     1      48.595  48.891  17.741  1.00  0.00    +0.015 C 
ATOM     18  C   UNL     1      47.488  48.742  18.756  1.00  0.00    +0.006 C 
ATOM     19  C   UNL     1      47.155  49.085  17.328  1.00  0.00    +0.006 C 
ENDBRANCH  16  17
ENDBRANCH  15  16
ENDBRANCH   2  15
TORSDOF 5
ENDMDL
MODEL 3
REMARK VINA RESULT:    -6.772      3.433      4.616
REMARK INTER + INTRA:          -9.329
REMARK INTER:                  -8.601
REMARK INTRA:                  -0.728
REMARK UNBOUND:                -0.577
REMARK SMILES C[C@@H](OCC1CC1)C(=O)Nc1ccc(C#N)cc1
REMARK SMILES IDX 1 1 2 2 8 3 9 4 10 5 11 7 12 8 18 9 13 10 17 11 14 12 15 13
REMARK SMILES IDX 16 14 3 15 4 16 5 17 6 18 7 19
REMARK H PARENT 10 6
ROOT
ATOM      1  C   UNL     1      51.928  56.035  19.273  1.00  0.00    +0.049 C 
ATOM      2  C   UNL     1      51.774  55.237  20.561  1.00  0.00    +0.204 C 
ENDROOT
BRANCH   2   3
ATOM      3  C   UNL     1      50.763  54.090  20.345  1.00  0.00    +0.253 C 
ATOM      4  O   UNL     1      50.279  53.471  21.287  1.00  0.00    -0.272 OA
ATOM      5  N   UNL     1      50.482  53.902  19.004  1.00  0.00    -0.324 N 
ATOM      6  H   UNL     1      51.027  54.505  18.390  1.00  0.00    +0.170 HD
BRANCH   5   7
ATOM      7  C   UNL     1      49.596  52.989  18.412  1.00  0.00    +0.041 A 
ATOM      8  C   UNL     1      48.412  53.359  17.771  1.00  0.00    +0.027 A 
ATOM      9  C   UNL     1      49.939  51.633  18.473  1.00  0.00    +0.027 A 
ATOM     10  C   UNL     1      47.580  52.387  17.200  1.00  0.00    +0.021 A 
ATOM     11  C   UNL     1      49.110  50.660  17.904  1.00  0.00    +0.021 A 
ATOM     12  C   UNL     1      47.926  51.036  17.265  1.00  0.00    +0.052 A 
ATOM     13  C   UNL     1      47.074  50.042  16.681  1.00  0.00    +0.099 C 
ATOM     14  N   UNL     1      46.389  49.233  16.210  1.00  0.00    -0.192 NA
ENDBRANCH   5   7
ENDBRANCH   2   3
BRANCH   2  15
ATOM     15  O   UNL     1      51.329  56.099  21.619  1.00  0.00    -0.368 OA
BRANCH  15  16
ATOM     16  C   UNL     1      50.638  57.260  21.152  1.00  0.00    +0.164 C 
BRANCH  16  17
ATOM     17  C   UNL     1      49.165  57.165  21.415  1.00  0.00    +0.015 C 
ATOM     18  C   UNL     1      48.205  58.209  20.899  1.00  0.00    +0.006 C 
ATOM     19  C   UNL     1      48.157  56.809  20.350  1.00  0.00    +0.006 C 
ENDBRANCH  16  17
ENDBRANCH  15  16
ENDBRANCH   2  15
TORSDOF 5
ENDMDL
MODEL 4
REMARK VINA RESULT:    -6.748      2.434      6.949
REMARK INTER + INTRA:          -9.297
REMARK INTER:                  -9.008
REMARK INTRA:                  -0.290
REMARK UNBOUND:                -0.577
REMARK SMILES C[C@@H](OCC1CC1)C(=O)Nc1ccc(C#N)cc1
REMARK SMILES IDX 1 1 2 2 8 3 9 4 10 5 11 7 12 8 18 9 13 10 17 11 14 12 15 13
REMARK SMILES IDX 16 14 3 15 4 16 5 17 6 18 7 19
REMARK H PARENT 10 6
ROOT
ATOM      1  C   UNL     1      48.622  47.036  16.871  1.00  0.00    +0.049 C 
ATOM      2  C   UNL     1      48.794  48.079  15.774  1.00  0.00    +0.204 C 
ENDROOT
BRANCH   2   3
ATOM      3  C   UNL     1      49.353  49.384  16.381  1.00  0.00    +0.253 C 
ATOM      4  O   UNL     1      49.569  50.375  15.691  1.00  0.00    -0.272 OA
ATOM      5  N   UNL     1      49.530  49.277  17.749  1.00  0.00    -0.324 N 
ATOM      6  H   UNL     1      49.322  48.348  18.111  1.00  0.00    +0.170 HD
BRANCH   5   7
ATOM      7  C   UNL     1      49.982  50.249  18.654  1.00  0.00    +0.041 A 
ATOM      8  C   UNL     1      49.834  51.624  18.457  1.00  0.00    +0.027 A 
ATOM      9  C   UNL     1      50.612  49.795  19.820  1.00  0.00    +0.027 A 
ATOM     10  C   UNL     1      50.310  52.534  19.410  1.00  0.00    +0.021 A 
ATOM     11  C   UNL     1      51.088  50.702  20.773  1.00  0.00    +0.021 A 
ATOM     12  C   UNL     1      50.938  52.075  20.570  1.00  0.00    +0.052 A 
ATOM     13  C   UNL     1      51.424  53.007  21.545  1.00  0.00    +0.099 C 
ATOM     14  N   UNL     1      51.820  53.756  22.338  1.00  0.00    -0.192 NA
ENDBRANCH   5   7
ENDBRANCH   2   3
BRANCH   2  15
ATOM     15  O   UNL     1      47.533  48.328  15.135  1.00  0.00    -0.368 OA
BRANCH  15  16
ATOM     16  C   UNL     1      46.439  47.650  15.755  1.00  0.00    +0.164 C 
BRANCH  16  17
ATOM     17  C   UNL     1      45.456  48.616  16.344  1.00  0.00    +0.015 C 
ATOM     18  C   UNL     1      44.871  48.404  17.719  1.00  0.00    +0.006 C 
ATOM     19  C   UNL     1      45.799  49.563  17.469  1.00  0.00    +0.006 C 
ENDBRANCH  16  17
ENDBRANCH  15  16
ENDBRANCH   2  15
TORSDOF 5
ENDMDL
MODEL 5
REMARK VINA RESULT:    -6.725      4.554      7.879
REMARK INTER + INTRA:          -9.268
REMARK INTER:                  -8.661
REMARK INTRA:                  -0.607
REMARK UNBOUND:                -0.577
REMARK SMILES C[C@@H](OCC1CC1)C(=O)Nc1ccc(C#N)cc1
REMARK SMILES IDX 1 1 2 2 8 3 9 4 10 5 11 7 12 8 18 9 13 10 17 11 14 12 15 13
REMARK SMILES IDX 16 14 3 15 4 16 5 17 6 18 7 19
REMARK H PARENT 10 6
ROOT
ATOM      1  C   UNL     1      50.858  52.649  21.992  1.00  0.00    +0.049 C 
ATOM      2  C   UNL     1      51.889  53.159  20.994  1.00  0.00    +0.204 C 
ENDROOT
BRANCH   2   3
ATOM      3  C   UNL     1      51.453  54.538  20.455  1.00  0.00    +0.253 C 
ATOM      4  O   UNL     1      52.136  55.161  19.648  1.00  0.00    -0.272 OA
ATOM      5  N   UNL     1      50.229  54.926  20.970  1.00  0.00    -0.324 N 
ATOM      6  H   UNL     1      49.856  54.271  21.656  1.00  0.00    +0.170 HD
BRANCH   5   7
ATOM      7  C   UNL     1      49.490  56.087  20.699  1.00  0.00    +0.041 A 
ATOM      8  C   UNL     1      49.435  57.190  21.553  1.00  0.00    +0.027 A 
ATOM      9  C   UNL     1      48.778  56.125  19.494  1.00  0.00    +0.027 A 
ATOM     10  C   UNL     1      48.675  58.317  21.210  1.00  0.00    +0.021 A 
ATOM     11  C   UNL     1      48.019  57.249  19.148  1.00  0.00    +0.021 A 
ATOM     12  C   UNL     1      47.966  58.349  20.008  1.00  0.00    +0.052 A 
ATOM     13  C   UNL     1      47.189  59.502  19.657  1.00  0.00    +0.099 C 
ATOM     14  N   UNL     1      46.560  60.433  19.367  1.00  0.00    -0.192 NA
ENDBRANCH   5   7
ENDBRANCH   2   3
BRANCH   2  15
ATOM     15  O   UNL     1      52.027  52.224  19.914  1.00  0.00    -0.368 OA
BRANCH  15  16
ATOM     16  C   UNL     1      50.778  51.728  19.430  1.00  0.00    +0.164 C 
BRANCH  16  17
ATOM     17  C   UNL     1      50.829  50.249  19.190  1.00  0.00    +0.015 C 
ATOM     18  C   UNL     1      50.630  49.262  20.314  1.00  0.00    +0.006 C 
ATOM     19  C   UNL     1      49.607  49.364  19.214  1.00  0.00    +0.006 C 
ENDBRANCH  16  17
ENDBRANCH  15  16
ENDBRANCH   2  15
TORSDOF 5
ENDMDL
