MODEL 1
REMARK VINA RESULT:    -6.118      0.000      0.000
REMARK INTER + INTRA:          -9.050
REMARK INTER:                  -8.264
REMARK INTRA:                  -0.786
REMARK UNBOUND:                -0.786
REMARK SMILES CCC[C@@H](C)[NH2+]C1CCN(C(=O)OCC)CC1
REMARK SMILES IDX 6 1 4 4 5 5 3 6 2 7 1 8 7 9 8 10 17 11 9 12 16 13 10 14
REMARK SMILES IDX 11 15 12 16 13 17 14 18 15 19
REMARK H PARENT 6 2 6 3
ROOT
ATOM      1  N   UNL     1      49.993  57.652  20.269  1.00  0.00    -0.342 N 
ATOM      2  H   UNL     1      49.802  58.657  20.178  1.00  0.00    +0.346 HD
ATOM      3  H   UNL     1      50.196  57.350  19.306  1.00  0.00    +0.346 HD
ENDROOT
BRANCH   1   4
ATOM      4  C   UNL     1      48.683  57.024  20.698  1.00  0.00    +0.179 C 
ATOM      5  C   UNL     1      48.437  55.750  19.897  1.00  0.00    +0.075 C 
BRANCH   4   6
ATOM      6  C   UNL     1      47.541  58.040  20.617  1.00  0.00    +0.064 C 
BRANCH   6   7
ATOM      7  C   UNL     1      47.492  58.843  19.312  1.00  0.00    +0.003 C 
ATOM      8  C   UNL     1      47.115  60.298  19.509  1.00  0.00    +0.004 C 
ENDBRANCH   6   7
ENDBRANCH   4   6
ENDBRANCH   1   4
BRANCH   1   9
ATOM      9  C   UNL     1      51.238  57.469  21.123  1.00  0.00    +0.186 C 
ATOM     10  C   UNL     1      50.911  56.608  22.354  1.00  0.00    +0.086 C 
ATOM     11  C   UNL     1      52.350  56.872  20.251  1.00  0.00    +0.086 C 
ATOM     12  C   UNL     1      51.786  55.366  22.450  1.00  0.00    +0.129 C 
ATOM     13  C   UNL     1      52.146  55.388  19.982  1.00  0.00    +0.129 C 
ATOM     14  N   UNL     1      51.777  54.657  21.182  1.00  0.00    -0.308 N 
ATOM     15  C   UNL     1      51.646  53.273  21.174  1.00  0.00    +0.409 C 
ATOM     16  O   UNL     1      51.432  52.605  22.176  1.00  0.00    -0.224 OA
BRANCH  15  17
ATOM     17  O   UNL     1      51.766  52.762  19.919  1.00  0.00    -0.450 OA
BRANCH  17  18
ATOM     18  C   UNL     1      50.705  51.887  19.490  1.00  0.00    +0.231 C 
ATOM     19  C   UNL     1      49.867  52.583  18.433  1.00  0.00    +0.049 C 
ENDBRANCH  17  18
ENDBRANCH  15  17
ENDBRANCH   1   9
TORSDOF 6
ENDMDL
MODEL 2
REMARK VINA RESULT:    -6.056      2.415      3.494
REMARK INTER + INTRA:          -8.966
REMARK INTER:                  -8.500
REMARK INTRA:                  -0.466
REMARK UNBOUND:                -0.786
REMARK SMILES CCC[C@@H](C)[NH2+]C1CCN(C(=O)OCC)CC1
REMARK SMILES IDX 6 1 4 4 5 5 3 6 2 7 1 8 7 9 8 10 17 11 9 12 16 13 10 14
REMARK SMILES IDX 11 15 12 16 13 17 14 18 15 19
REMARK H PARENT 6 2 6 3
ROOT
ATOM      1  N   UNL     1      50.320  54.484  20.976  1.00  0.00    -0.342 N 
ATOM      2  H   UNL     1      49.681  54.084  20.278  1.00  0.00    +0.346 HD
ATOM      3  H   UNL     1      49.878  54.255  21.877  1.00  0.00    +0.346 HD
ENDROOT
BRANCH   1   4
ATOM      4  C   UNL     1      50.250  55.985  20.780  1.00  0.00    +0.179 C 
ATOM      5  C   UNL     1      50.813  56.691  22.009  1.00  0.00    +0.075 C 
BRANCH   4   6
ATOM      6  C   UNL     1      48.829  56.419  20.411  1.00  0.00    +0.064 C 
BRANCH   6   7
ATOM      7  C   UNL     1      48.343  57.687  21.123  1.00  0.00    +0.003 C 
ATOM      8  C   UNL     1      47.672  58.682  20.196  1.00  0.00    +0.004 C 
ENDBRANCH   6   7
ENDBRANCH   4   6
ENDBRANCH   1   4
BRANCH   1   9
ATOM      9  C   UNL     1      51.657  53.768  20.880  1.00  0.00    +0.186 C 
ATOM     10  C   UNL     1      51.686  52.574  21.848  1.00  0.00    +0.086 C 
ATOM     11  C   UNL     1      51.896  53.363  19.420  1.00  0.00    +0.086 C 
ATOM     12  C   UNL     1      51.975  51.255  21.144  1.00  0.00    +0.129 C 
ATOM     13  C   UNL     1      51.062  52.159  19.006  1.00  0.00    +0.129 C 
ATOM     14  N   UNL     1      51.089  51.102  20.002  1.00  0.00    -0.308 N 
ATOM     15  C   UNL     1      50.478  49.875  19.771  1.00  0.00    +0.409 C 
ATOM     16  O   UNL     1      50.555  48.923  20.536  1.00  0.00    -0.224 OA
BRANCH  15  17
ATOM     17  O   UNL     1      49.774  49.873  18.608  1.00  0.00    -0.450 OA
BRANCH  17  18
ATOM     18  C   UNL     1      49.040  48.668  18.316  1.00  0.00    +0.231 C 
ATOM     19  C   UNL     1      47.559  48.905  18.551  1.00  0.00    +0.049 C 
ENDBRANCH  17  18
ENDBRANCH  15  17
ENDBRANCH   1   9
TORSDOF 6
ENDMDL
MODEL 3
REMARK VINA RESULT:    -5.696      6.487      9.051
REMARK INTER + INTRA:          -8.480
REMARK INTER:                  -7.785
REMARK INTRA:                  -0.695
REMARK UNBOUND:                -0.786
REMARK SMILES CCC[C@@H](C)[NH2+]C1CCN(C(=O)OCC)CC1
REMARK SMILES IDX 6 1 4 4 5 5 3 6 2 7 1 8 7 9 8 10 17 11 9 12 16 13 10 14
REMARK SMILES IDX 11 15 12 16 13 17 14 18 15 19
REMARK H PARENT 6 2 6 3
ROOT
ATOM      1  N   UNL     1      46.320  48.771  15.533  1.00  0.00    -0.342 N 
ATOM      2  H   UNL     1      46.336  49.073  16.516  1.00  0.00    +0.346 HD
ATOM      3  H   UNL     1      45.942  49.587  15.031  1.00  0.00    +0.346 HD
ENDROOT
BRANCH   1   4
ATOM      4  C   UNL     1      45.298  47.654  15.465  1.00  0.00    +0.179 C 
ATOM      5  C   UNL     1      44.461  47.801  14.200  1.00  0.00    +0.075 C 
BRANCH   4   6
ATOM      6  C   UNL     1      44.474  47.593  16.754  1.00  0.00    +0.064 C 
BRANCH   6   7
ATOM      7  C   UNL     1      45.068  48.375  17.931  1.00  0.00    +0.003 C 
ATOM      8  C   UNL     1      45.540  47.491  19.069  1.00  0.00    +0.004 C 
ENDBRANCH   6   7
ENDBRANCH   4   6
ENDBRANCH   1   4
BRANCH   1   9
ATOM      9  C   UNL     1      47.749  48.523  15.077  1.00  0.00    +0.186 C 
ATOM     10  C   UNL     1      48.442  49.859  14.766  1.00  0.00    +0.086 C 
ATOM     11  C   UNL     1      48.474  47.706  16.152  1.00  0.00    +0.086 C 
ATOM     12  C   UNL     1      49.715  50.062  15.576  1.00  0.00    +0.129 C 
ATOM     13  C   UNL     1      48.859  48.547  17.362  1.00  0.00    +0.129 C 
ATOM     14  N   UNL     1      49.448  49.820  16.983  1.00  0.00    -0.308 N 
ATOM     15  C   UNL     1      49.962  50.691  17.936  1.00  0.00    +0.409 C 
ATOM     16  O   UNL     1      50.552  51.727  17.661  1.00  0.00    -0.224 OA
BRANCH  15  17
ATOM     17  O   UNL     1      49.712  50.260  19.201  1.00  0.00    -0.450 OA
BRANCH  17  18
ATOM     18  C   UNL     1      50.867  49.922  19.993  1.00  0.00    +0.231 C 
ATOM     19  C   UNL     1      50.493  48.865  21.016  1.00  0.00    +0.049 C 
ENDBRANCH  17  18
ENDBRANCH  15  17
ENDBRANCH   1   9
TORSDOF 6
ENDMDL
MODEL 4
REMARK VINA RESULT:    -5.657      2.171      4.072
REMARK INTER + INTRA:          -8.427
REMARK INTER:                  -7.931
REMARK INTRA:                  -0.496
REMARK UNBOUND:                -0.786
REMARK SMILES CCC[C@@H](C)[NH2+]C1CCN(C(=O)OCC)CC1
REMARK SMILES IDX 6 1 4 4 5 5 3 6 2 7 1 8 7 9 8 10 17 11 9 12 16 13 10 14
REMARK SMILES IDX 11 15 12 16 13 17 14 18 15 19
REMARK H PARENT 6 2 6 3
ROOT
ATOM      1  N   UNL     1      48.242  58.131  18.771  1.00  0.00    -0.342 N 
ATOM      2  H   UNL     1      48.694  58.938  19.217  1.00  0.00    +0.346 HD
ATOM      3  H   UNL     1      48.956  57.777  18.118  1.00  0.00    +0.346 HD
ENDROOT
BRANCH   1   4
ATOM      4  C   UNL     1      47.096  58.701  17.960  1.00  0.00    +0.179 C 
ATOM      5  C   UNL     1      47.140  58.140  16.543  1.00  0.00    +0.075 C 
BRANCH   4   6
ATOM      6  C   UNL     1      47.094  60.231  18.024  1.00  0.00    +0.064 C 
BRANCH   6   7
ATOM      7  C   UNL     1      46.981  60.811  19.439  1.00  0.00    +0.003 C 
ATOM      8  C   UNL     1      46.514  62.253  19.466  1.00  0.00    +0.004 C 
ENDBRANCH   6   7
ENDBRANCH   4   6
ENDBRANCH   1   4
BRANCH   1   9
ATOM      9  C   UNL     1      47.971  57.076  19.832  1.00  0.00    +0.186 C 
ATOM     10  C   UNL     1      48.817  55.823  19.557  1.00  0.00    +0.086 C 
ATOM     11  C   UNL     1      48.234  57.688  21.213  1.00  0.00    +0.086 C 
ATOM     12  C   UNL     1      49.710  55.449  20.732  1.00  0.00    +0.129 C 
ATOM     13  C   UNL     1      49.720  57.816  21.520  1.00  0.00    +0.129 C 
ATOM     14  N   UNL     1      50.459  56.614  21.172  1.00  0.00    -0.308 N 
ATOM     15  C   UNL     1      51.811  56.485  21.469  1.00  0.00    +0.409 C 
ATOM     16  O   UNL     1      52.452  55.459  21.284  1.00  0.00    -0.224 OA
BRANCH  15  17
ATOM     17  O   UNL     1      52.330  57.638  21.968  1.00  0.00    -0.450 OA
BRANCH  17  18
ATOM     18  C   UNL     1      53.766  57.746  21.945  1.00  0.00    +0.231 C 
ATOM     19  C   UNL     1      54.218  58.239  20.582  1.00  0.00    +0.049 C 
ENDBRANCH  17  18
ENDBRANCH  15  17
ENDBRANCH   1   9
TORSDOF 6
ENDMDL
MODEL 5
REMARK VINA RESULT:    -5.459      4.461      6.988
REMARK INTER + INTRA:          -8.160
REMARK INTER:                  -7.532
REMARK INTRA:                  -0.628
REMARK UNBOUND:                -0.786
REMARK SMILES CCC[C@@H](C)[NH2+]C1CCN(C(=O)OCC)CC1
REMARK SMILES IDX 6 1 4 4 5 5 3 6 2 7 1 8 7 9 8 10 17 11 9 12 16 13 10 14
REMARK SMILES IDX 11 15 12 16 13 17 14 18 15 19
REMARK H PARENT 6 2 6 3
ROOT
ATOM      1  N   UNL     1      50.138  52.382  17.775  1.00  0.00    -0.342 N 
ATOM      2  H   UNL     1      50.807  52.963  17.255  1.00  0.00    +0.346 HD
ATOM      3  H   UNL     1      49.238  52.564  17.308  1.00  0.00    +0.346 HD
ENDROOT
BRANCH   1   4
ATOM      4  C   UNL     1      50.080  52.973  19.169  1.00  0.00    +0.179 C 
ATOM      5  C   UNL     1      49.127  54.164  19.182  1.00  0.00    +0.075 C 
BRANCH   4   6
ATOM      6  C   UNL     1      51.485  53.296  19.681  1.00  0.00    +0.064 C 
BRANCH   6   7
ATOM      7  C   UNL     1      51.798  52.744  21.077  1.00  0.00    +0.003 C 
ATOM      8  C   UNL     1      51.625  53.765  22.185  1.00  0.00    +0.004 C 
ENDBRANCH   6   7
ENDBRANCH   4   6
ENDBRANCH   1   4
BRANCH   1   9
ATOM      9  C   UNL     1      50.512  50.921  17.585  1.00  0.00    +0.186 C 
ATOM     10  C   UNL     1      50.135  50.113  18.838  1.00  0.00    +0.086 C 
ATOM     11  C   UNL     1      49.837  50.401  16.310  1.00  0.00    +0.086 C 
ATOM     12  C   UNL     1      49.195  48.956  18.529  1.00  0.00    +0.129 C 
ATOM     13  C   UNL     1      48.350  50.140  16.503  1.00  0.00    +0.129 C 
ATOM     14  N   UNL     1      48.072  49.431  17.740  1.00  0.00    -0.308 N 
ATOM     15  C   UNL     1      46.787  49.003  18.055  1.00  0.00    +0.409 C 
ATOM     16  O   UNL     1      46.519  48.321  19.035  1.00  0.00    -0.224 OA
BRANCH  15  17
ATOM     17  O   UNL     1      45.871  49.452  17.155  1.00  0.00    -0.450 OA
BRANCH  17  18
ATOM     18  C   UNL     1      45.028  48.448  16.559  1.00  0.00    +0.231 C 
ATOM     19  C   UNL     1      45.640  47.979  15.252  1.00  0.00    +0.049 C 
ENDBRANCH  17  18
ENDBRANCH  15  17
ENDBRANCH   1   9
TORSDOF 6
ENDMDL
