MODEL 1
REMARK VINA RESULT:    -6.543      0.000      0.000
REMARK INTER + INTRA:          -9.189
REMARK INTER:                  -8.838
REMARK INTRA:                  -0.351
REMARK UNBOUND:                -0.351
REMARK SMILES CC[NH+](CC)CCNc1ccccc1C#N
REMARK SMILES IDX 6 1 3 2 2 4 1 5 4 6 5 7 7 8 8 9 9 11 10 12 14 13 11 14 13 15
REMARK SMILES IDX 15 16 12 17 16 18
REMARK H PARENT 3 3 8 10
ROOT
ATOM      1  C   UNL     1      49.436  52.758  18.573  1.00  0.00    +0.283 C 
ENDROOT
BRANCH   1   2
ATOM      2  N   UNL     1      49.794  52.014  17.286  1.00  0.00    -0.334 N 
ATOM      3  H   UNL     1      50.525  52.555  16.805  1.00  0.00    +0.348 HD
BRANCH   2   4
ATOM      4  C   UNL     1      50.380  50.640  17.582  1.00  0.00    +0.258 C 
ATOM      5  C   UNL     1      50.123  50.261  19.029  1.00  0.00    +0.071 C 
ENDBRANCH   2   4
BRANCH   2   6
ATOM      6  C   UNL     1      48.601  51.924  16.346  1.00  0.00    +0.258 C 
ATOM      7  C   UNL     1      47.715  53.147  16.506  1.00  0.00    +0.071 C 
ENDBRANCH   2   6
ENDBRANCH   1   2
BRANCH   1   8
ATOM      8  C   UNL     1      50.375  53.960  18.831  1.00  0.00    +0.174 C 
BRANCH   8   9
ATOM      9  N   UNL     1      50.209  54.437  20.199  1.00  0.00    -0.378 N 
ATOM     10  H   UNL     1      51.034  54.320  20.792  1.00  0.00    +0.160 HD
BRANCH   9  11
ATOM     11  C   UNL     1      49.558  55.656  20.475  1.00  0.00    +0.052 A 
ATOM     12  C   UNL     1      48.298  55.974  19.943  1.00  0.00    +0.027 A 
ATOM     13  C   UNL     1      50.103  56.557  21.424  1.00  0.00    +0.075 A 
ATOM     14  C   UNL     1      47.636  57.158  20.289  1.00  0.00    +0.002 A 
ATOM     15  C   UNL     1      49.436  57.743  21.769  1.00  0.00    +0.021 A 
ATOM     16  C   UNL     1      51.365  56.283  22.052  1.00  0.00    +0.101 C 
ATOM     17  C   UNL     1      48.205  58.043  21.196  1.00  0.00    +0.002 A 
ATOM     18  N   UNL     1      52.401  56.012  22.500  1.00  0.00    -0.192 NA
ENDBRANCH   9  11
ENDBRANCH   8   9
ENDBRANCH   1   8
TORSDOF 6
ENDMDL
MODEL 2
REMARK VINA RESULT:    -6.380      1.247      2.159
REMARK INTER + INTRA:          -8.969
REMARK INTER:                  -8.552
REMARK INTRA:                  -0.416
REMARK UNBOUND:                -0.351
REMARK SMILES CC[NH+](CC)CCNc1ccccc1C#N
REMARK SMILES IDX 6 1 3 2 2 4 1 5 4 6 5 7 7 8 8 9 9 11 10 12 14 13 11 14 13 15
REMARK SMILES IDX 15 16 12 17 16 18
REMARK H PARENT 3 3 8 10
ROOT
ATOM      1  C   UNL     1      50.288  52.802  18.401  1.00  0.00    +0.283 C 
ENDROOT
BRANCH   1   2
ATOM      2  N   UNL     1      50.671  51.491  19.088  1.00  0.00    -0.334 N 
ATOM      3  H   UNL     1      50.173  51.452  19.987  1.00  0.00    +0.348 HD
BRANCH   2   4
ATOM      4  C   UNL     1      50.220  50.284  18.276  1.00  0.00    +0.258 C 
ATOM      5  C   UNL     1      49.403  49.344  19.144  1.00  0.00    +0.071 C 
ENDBRANCH   2   4
BRANCH   2   6
ATOM      6  C   UNL     1      52.162  51.437  19.391  1.00  0.00    +0.258 C 
ATOM      7  C   UNL     1      52.386  51.119  20.859  1.00  0.00    +0.071 C 
ENDBRANCH   2   6
ENDBRANCH   1   2
BRANCH   1   8
ATOM      8  C   UNL     1      50.911  54.031  19.102  1.00  0.00    +0.174 C 
BRANCH   8   9
ATOM      9  N   UNL     1      50.179  54.332  20.326  1.00  0.00    -0.378 N 
ATOM     10  H   UNL     1      50.643  54.026  21.185  1.00  0.00    +0.160 HD
BRANCH   9  11
ATOM     11  C   UNL     1      49.545  55.577  20.512  1.00  0.00    +0.052 A 
ATOM     12  C   UNL     1      48.294  55.876  19.950  1.00  0.00    +0.027 A 
ATOM     13  C   UNL     1      50.098  56.534  21.400  1.00  0.00    +0.075 A 
ATOM     14  C   UNL     1      47.647  57.091  20.208  1.00  0.00    +0.002 A 
ATOM     15  C   UNL     1      49.446  57.751  21.657  1.00  0.00    +0.021 A 
ATOM     16  C   UNL     1      51.351  56.285  22.054  1.00  0.00    +0.101 C 
ATOM     17  C   UNL     1      48.224  58.029  21.055  1.00  0.00    +0.002 A 
ATOM     18  N   UNL     1      52.380  56.031  22.528  1.00  0.00    -0.192 NA
ENDBRANCH   9  11
ENDBRANCH   8   9
ENDBRANCH   1   8
TORSDOF 6
ENDMDL
MODEL 3
REMARK VINA RESULT:    -5.831      1.796      2.622
REMARK INTER + INTRA:          -8.227
REMARK INTER:                  -7.646
REMARK INTRA:                  -0.582
REMARK UNBOUND:                -0.351
REMARK SMILES CC[NH+](CC)CCNc1ccccc1C#N
REMARK SMILES IDX 6 1 3 2 2 4 1 5 4 6 5 7 7 8 8 9 9 11 10 12 14 13 11 14 13 15
REMARK SMILES IDX 15 16 12 17 16 18
REMARK H PARENT 3 3 8 10
ROOT
ATOM      1  C   UNL     1      51.479  51.666  20.717  1.00  0.00    +0.283 C 
ENDROOT
BRANCH   1   2
ATOM      2  N   UNL     1      50.491  51.457  19.569  1.00  0.00    -0.334 N 
ATOM      3  H   UNL     1      49.644  52.001  19.783  1.00  0.00    +0.348 HD
BRANCH   2   4
ATOM      4  C   UNL     1      51.043  51.990  18.254  1.00  0.00    +0.258 C 
ATOM      5  C   UNL     1      52.536  52.238  18.376  1.00  0.00    +0.071 C 
ENDBRANCH   2   4
BRANCH   2   6
ATOM      6  C   UNL     1      50.075  49.997  19.452  1.00  0.00    +0.258 C 
ATOM      7  C   UNL     1      51.062  49.111  20.191  1.00  0.00    +0.071 C 
ENDBRANCH   2   6
ENDBRANCH   1   2
BRANCH   1   8
ATOM      8  C   UNL     1      51.007  52.762  21.700  1.00  0.00    +0.174 C 
BRANCH   8   9
ATOM      9  N   UNL     1      51.470  54.069  21.249  1.00  0.00    -0.378 N 
ATOM     10  H   UNL     1      52.247  54.038  20.585  1.00  0.00    +0.160 HD
BRANCH   9  11
ATOM     11  C   UNL     1      50.560  55.091  20.913  1.00  0.00    +0.052 A 
ATOM     12  C   UNL     1      49.305  54.825  20.342  1.00  0.00    +0.027 A 
ATOM     13  C   UNL     1      50.832  56.436  21.272  1.00  0.00    +0.075 A 
ATOM     14  C   UNL     1      48.386  55.849  20.085  1.00  0.00    +0.002 A 
ATOM     15  C   UNL     1      49.908  57.460  21.013  1.00  0.00    +0.021 A 
ATOM     16  C   UNL     1      52.072  56.786  21.904  1.00  0.00    +0.101 C 
ATOM     17  C   UNL     1      48.688  57.165  20.414  1.00  0.00    +0.002 A 
ATOM     18  N   UNL     1      53.106  57.003  22.387  1.00  0.00    -0.192 NA
ENDBRANCH   9  11
ENDBRANCH   8   9
ENDBRANCH   1   8
TORSDOF 6
ENDMDL
MODEL 4
REMARK VINA RESULT:    -5.777      2.048      6.452
REMARK INTER + INTRA:          -8.154
REMARK INTER:                  -7.817
REMARK INTRA:                  -0.338
REMARK UNBOUND:                -0.351
REMARK SMILES CC[NH+](CC)CCNc1ccccc1C#N
REMARK SMILES IDX 6 1 3 2 2 4 1 5 4 6 5 7 7 8 8 9 9 11 10 12 14 13 11 14 13 15
REMARK SMILES IDX 15 16 12 17 16 18
REMARK H PARENT 3 3 8 10
ROOT
ATOM      1  C   UNL     1      50.070  53.995  18.810  1.00  0.00    +0.283 C 
ENDROOT
BRANCH   1   2
ATOM      2  N   UNL     1      50.758  55.004  19.730  1.00  0.00    -0.334 N 
ATOM      3  H   UNL     1      51.210  55.712  19.135  1.00  0.00    +0.348 HD
BRANCH   2   4
ATOM      4  C   UNL     1      49.750  55.737  20.606  1.00  0.00    +0.258 C 
ATOM      5  C   UNL     1      48.407  55.818  19.903  1.00  0.00    +0.071 C 
ENDBRANCH   2   4
BRANCH   2   6
ATOM      6  C   UNL     1      51.849  54.345  20.562  1.00  0.00    +0.258 C 
ATOM      7  C   UNL     1      51.622  54.622  22.037  1.00  0.00    +0.071 C 
ENDBRANCH   2   6
ENDBRANCH   1   2
BRANCH   1   8
ATOM      8  C   UNL     1      50.338  52.535  19.242  1.00  0.00    +0.174 C 
BRANCH   8   9
ATOM      9  N   UNL     1      50.106  51.632  18.121  1.00  0.00    -0.378 N 
ATOM     10  H   UNL     1      50.931  51.105  17.823  1.00  0.00    +0.160 HD
BRANCH   9  11
ATOM     11  C   UNL     1      48.946  50.835  18.052  1.00  0.00    +0.052 A 
ATOM     12  C   UNL     1      47.843  51.180  17.255  1.00  0.00    +0.027 A 
ATOM     13  C   UNL     1      48.910  49.569  18.690  1.00  0.00    +0.075 A 
ATOM     14  C   UNL     1      46.730  50.338  17.143  1.00  0.00    +0.002 A 
ATOM     15  C   UNL     1      47.793  48.727  18.574  1.00  0.00    +0.021 A 
ATOM     16  C   UNL     1      50.018  49.120  19.484  1.00  0.00    +0.101 C 
ATOM     17  C   UNL     1      46.702  49.116  17.804  1.00  0.00    +0.002 A 
ATOM     18  N   UNL     1      50.937  48.831  20.133  1.00  0.00    -0.192 NA
ENDBRANCH   9  11
ENDBRANCH   8   9
ENDBRANCH   1   8
TORSDOF 6
ENDMDL
MODEL 5
REMARK VINA RESULT:    -5.627      1.640      3.306
REMARK INTER + INTRA:          -7.951
REMARK INTER:                  -7.580
REMARK INTRA:                  -0.372
REMARK UNBOUND:                -0.351
REMARK SMILES CC[NH+](CC)CCNc1ccccc1C#N
REMARK SMILES IDX 6 1 3 2 2 4 1 5 4 6 5 7 7 8 8 9 9 11 10 12 14 13 11 14 13 15
REMARK SMILES IDX 15 16 12 17 16 18
REMARK H PARENT 3 3 8 10
ROOT
ATOM      1  C   UNL     1      51.410  52.518  19.796  1.00  0.00    +0.283 C 
ENDROOT
BRANCH   1   2
ATOM      2  N   UNL     1      50.527  51.270  19.777  1.00  0.00    -0.334 N 
ATOM      3  H   UNL     1      49.870  51.340  20.565  1.00  0.00    +0.348 HD
BRANCH   2   4
ATOM      4  C   UNL     1      49.691  51.198  18.506  1.00  0.00    +0.258 C 
ATOM      5  C   UNL     1      50.541  50.709  17.347  1.00  0.00    +0.071 C 
ENDBRANCH   2   4
BRANCH   2   6
ATOM      6  C   UNL     1      51.348  50.005  19.980  1.00  0.00    +0.258 C 
ATOM      7  C   UNL     1      50.538  48.972  20.745  1.00  0.00    +0.071 C 
ENDBRANCH   2   6
ENDBRANCH   1   2
BRANCH   1   8
ATOM      8  C   UNL     1      50.919  53.564  20.824  1.00  0.00    +0.174 C 
BRANCH   8   9
ATOM      9  N   UNL     1      50.985  54.901  20.247  1.00  0.00    -0.378 N 
ATOM     10  H   UNL     1      51.243  54.923  19.257  1.00  0.00    +0.160 HD
BRANCH   9  11
ATOM     11  C   UNL     1      50.006  55.871  20.536  1.00  0.00    +0.052 A 
ATOM     12  C   UNL     1      50.145  56.792  21.586  1.00  0.00    +0.027 A 
ATOM     13  C   UNL     1      48.892  56.040  19.674  1.00  0.00    +0.075 A 
ATOM     14  C   UNL     1      49.195  57.796  21.810  1.00  0.00    +0.002 A 
ATOM     15  C   UNL     1      47.942  57.048  19.902  1.00  0.00    +0.021 A 
ATOM     16  C   UNL     1      48.701  55.171  18.548  1.00  0.00    +0.101 C 
ATOM     17  C   UNL     1      48.093  57.921  20.973  1.00  0.00    +0.002 A 
ATOM     18  N   UNL     1      48.595  54.416  17.672  1.00  0.00    -0.192 NA
ENDBRANCH   9  11
ENDBRANCH   8   9
ENDBRANCH   1   8
TORSDOF 6
ENDMDL
