MODEL 1
REMARK VINA RESULT:    -6.950      0.000      0.000
REMARK INTER + INTRA:          -9.916
REMARK INTER:                  -9.591
REMARK INTRA:                  -0.325
REMARK UNBOUND:                -0.325
REMARK SMILES CC(C)CCNS(=O)(=O)Cc1ccc(N)cc1
REMARK SMILES IDX 7 1 8 2 9 3 6 4 5 6 4 7 2 8 1 9 3 10 10 11 11 12 12 13 17 14
REMARK SMILES IDX 13 15 16 16 14 17 15 18
REMARK H PARENT 6 5 15 19 15 20
ROOT
ATOM      1  S   UNL     1      51.924  56.049  21.945  1.00  0.00    +0.215 S 
ATOM      2  O   UNL     1      52.008  55.448  23.259  1.00  0.00    -0.212 OA
ATOM      3  O   UNL     1      53.107  56.401  21.189  1.00  0.00    -0.212 OA
ENDROOT
BRANCH   1   4
ATOM      4  N   UNL     1      51.051  57.478  22.192  1.00  0.00    -0.215 NA
ATOM      5  H   UNL     1      51.677  58.200  22.555  1.00  0.00    +0.140 HD
BRANCH   4   6
ATOM      6  C   UNL     1      50.126  57.899  21.130  1.00  0.00    +0.099 C 
BRANCH   6   7
ATOM      7  C   UNL     1      48.733  58.145  21.712  1.00  0.00    +0.019 C 
BRANCH   7   8
ATOM      8  C   UNL     1      47.558  57.954  20.731  1.00  0.00    -0.016 C 
ATOM      9  C   UNL     1      47.461  59.083  19.706  1.00  0.00    +0.007 C 
ATOM     10  C   UNL     1      47.702  56.611  20.010  1.00  0.00    +0.007 C 
ENDBRANCH   7   8
ENDBRANCH   6   7
ENDBRANCH   4   6
ENDBRANCH   1   4
BRANCH   1  11
ATOM     11  C   UNL     1      50.776  55.111  20.927  1.00  0.00    +0.189 C 
BRANCH  11  12
ATOM     12  C   UNL     1      51.280  53.700  20.786  1.00  0.00    -0.031 A 
ATOM     13  C   UNL     1      52.168  53.358  19.760  1.00  0.00    +0.007 A 
ATOM     14  C   UNL     1      50.862  52.701  21.674  1.00  0.00    +0.007 A 
ATOM     15  C   UNL     1      52.635  52.045  19.633  1.00  0.00    +0.026 A 
ATOM     16  C   UNL     1      51.333  51.392  21.541  1.00  0.00    +0.026 A 
ATOM     17  C   UNL     1      52.262  51.062  20.552  1.00  0.00    +0.031 A 
BRANCH  17  18
ATOM     18  N   UNL     1      52.639  49.729  20.353  1.00  0.00    -0.399 N 
ATOM     19  H   UNL     1      53.057  49.300  21.173  1.00  0.00    +0.156 HD
ATOM     20  H   UNL     1      51.902  49.155  19.955  1.00  0.00    +0.156 HD
ENDBRANCH  17  18
ENDBRANCH  11  12
ENDBRANCH   1  11
TORSDOF 7
ENDMDL
MODEL 2
REMARK VINA RESULT:    -6.731      3.639      6.698
REMARK INTER + INTRA:          -9.614
REMARK INTER:                  -9.296
REMARK INTRA:                  -0.318
REMARK UNBOUND:                -0.325
REMARK SMILES CC(C)CCNS(=O)(=O)Cc1ccc(N)cc1
REMARK SMILES IDX 7 1 8 2 9 3 6 4 5 6 4 7 2 8 1 9 3 10 10 11 11 12 12 13 17 14
REMARK SMILES IDX 13 15 16 16 14 17 15 18
REMARK H PARENT 6 5 15 19 15 20
ROOT
ATOM      1  S   UNL     1      52.192  51.342  19.786  1.00  0.00    +0.215 S 
ATOM      2  O   UNL     1      52.604  52.534  19.076  1.00  0.00    -0.212 OA
ATOM      3  O   UNL     1      53.141  50.497  20.478  1.00  0.00    -0.212 OA
ENDROOT
BRANCH   1   4
ATOM      4  N   UNL     1      51.447  50.386  18.605  1.00  0.00    -0.215 NA
ATOM      5  H   UNL     1      51.832  49.440  18.641  1.00  0.00    +0.140 HD
BRANCH   4   6
ATOM      6  C   UNL     1      49.986  50.484  18.477  1.00  0.00    +0.099 C 
BRANCH   6   7
ATOM      7  C   UNL     1      49.337  49.141  18.814  1.00  0.00    +0.019 C 
BRANCH   7   8
ATOM      8  C   UNL     1      48.210  48.687  17.864  1.00  0.00    -0.016 C 
ATOM      9  C   UNL     1      48.582  47.437  17.068  1.00  0.00    +0.007 C 
ATOM     10  C   UNL     1      46.933  48.427  18.668  1.00  0.00    +0.007 C 
ENDBRANCH   7   8
ENDBRANCH   6   7
ENDBRANCH   4   6
ENDBRANCH   1   4
BRANCH   1  11
ATOM     11  C   UNL     1      50.795  51.731  20.851  1.00  0.00    +0.189 C 
BRANCH  11  12
ATOM     12  C   UNL     1      50.817  53.200  21.180  1.00  0.00    -0.031 A 
ATOM     13  C   UNL     1      51.626  53.688  22.212  1.00  0.00    +0.007 A 
ATOM     14  C   UNL     1      50.023  54.103  20.463  1.00  0.00    +0.007 A 
ATOM     15  C   UNL     1      51.644  55.054  22.513  1.00  0.00    +0.026 A 
ATOM     16  C   UNL     1      50.046  55.466  20.770  1.00  0.00    +0.026 A 
ATOM     17  C   UNL     1      50.895  55.962  21.762  1.00  0.00    +0.031 A 
BRANCH  17  18
ATOM     18  N   UNL     1      50.828  57.307  22.141  1.00  0.00    -0.399 N 
ATOM     19  H   UNL     1      50.600  57.933  21.374  1.00  0.00    +0.156 HD
ATOM     20  H   UNL     1      50.242  57.470  22.955  1.00  0.00    +0.156 HD
ENDBRANCH  17  18
ENDBRANCH  11  12
ENDBRANCH   1  11
TORSDOF 7
ENDMDL
MODEL 3
REMARK VINA RESULT:    -6.327      3.180      6.491
REMARK INTER + INTRA:          -9.056
REMARK INTER:                  -8.774
REMARK INTRA:                  -0.282
REMARK UNBOUND:                -0.325
REMARK SMILES CC(C)CCNS(=O)(=O)Cc1ccc(N)cc1
REMARK SMILES IDX 7 1 8 2 9 3 6 4 5 6 4 7 2 8 1 9 3 10 10 11 11 12 12 13 17 14
REMARK SMILES IDX 13 15 16 16 14 17 15 18
REMARK H PARENT 6 5 15 19 15 20
ROOT
ATOM      1  S   UNL     1      51.814  53.341  19.212  1.00  0.00    +0.215 S 
ATOM      2  O   UNL     1      52.075  54.693  18.766  1.00  0.00    -0.212 OA
ATOM      3  O   UNL     1      52.881  52.387  19.426  1.00  0.00    -0.212 OA
ENDROOT
BRANCH   1   4
ATOM      4  N   UNL     1      50.802  52.694  18.020  1.00  0.00    -0.215 NA
ATOM      5  H   UNL     1      50.954  53.190  17.139  1.00  0.00    +0.140 HD
BRANCH   4   6
ATOM      6  C   UNL     1      50.714  51.229  17.929  1.00  0.00    +0.099 C 
BRANCH   6   7
ATOM      7  C   UNL     1      49.268  50.804  17.665  1.00  0.00    +0.019 C 
BRANCH   7   8
ATOM      8  C   UNL     1      48.909  49.365  18.085  1.00  0.00    -0.016 C 
ATOM      9  C   UNL     1      49.547  48.966  19.415  1.00  0.00    +0.007 C 
ATOM     10  C   UNL     1      47.387  49.221  18.178  1.00  0.00    +0.007 C 
ENDBRANCH   7   8
ENDBRANCH   6   7
ENDBRANCH   4   6
ENDBRANCH   1   4
BRANCH   1  11
ATOM     11  C   UNL     1      50.705  53.379  20.627  1.00  0.00    +0.189 C 
BRANCH  11  12
ATOM     12  C   UNL     1      50.005  54.711  20.672  1.00  0.00    -0.031 A 
ATOM     13  C   UNL     1      50.504  55.754  21.461  1.00  0.00    +0.007 A 
ATOM     14  C   UNL     1      48.838  54.929  19.929  1.00  0.00    +0.007 A 
ATOM     15  C   UNL     1      49.851  56.991  21.498  1.00  0.00    +0.026 A 
ATOM     16  C   UNL     1      48.191  56.168  19.971  1.00  0.00    +0.026 A 
ATOM     17  C   UNL     1      48.719  57.226  20.715  1.00  0.00    +0.031 A 
BRANCH  17  18
ATOM     18  N   UNL     1      48.006  58.423  20.845  1.00  0.00    -0.399 N 
ATOM     19  H   UNL     1      47.852  58.699  21.810  1.00  0.00    +0.156 HD
ATOM     20  H   UNL     1      48.384  59.182  20.285  1.00  0.00    +0.156 HD
ENDBRANCH  17  18
ENDBRANCH  11  12
ENDBRANCH   1  11
TORSDOF 7
ENDMDL
MODEL 4
REMARK VINA RESULT:    -6.054      4.521      6.684
REMARK INTER + INTRA:          -8.680
REMARK INTER:                  -8.255
REMARK INTRA:                  -0.425
REMARK UNBOUND:                -0.325
REMARK SMILES CC(C)CCNS(=O)(=O)Cc1ccc(N)cc1
REMARK SMILES IDX 7 1 8 2 9 3 6 4 5 6 4 7 2 8 1 9 3 10 10 11 11 12 12 13 17 14
REMARK SMILES IDX 13 15 16 16 14 17 15 18
REMARK H PARENT 6 5 15 19 15 20
ROOT
ATOM      1  S   UNL     1      50.633  51.365  18.430  1.00  0.00    +0.215 S 
ATOM      2  O   UNL     1      50.473  50.217  19.298  1.00  0.00    -0.212 OA
ATOM      3  O   UNL     1      49.597  52.366  18.289  1.00  0.00    -0.212 OA
ENDROOT
BRANCH   1   4
ATOM      4  N   UNL     1      50.889  50.699  16.896  1.00  0.00    -0.215 NA
ATOM      5  H   UNL     1      51.560  49.931  16.967  1.00  0.00    +0.140 HD
BRANCH   4   6
ATOM      6  C   UNL     1      49.706  50.448  16.060  1.00  0.00    +0.099 C 
BRANCH   6   7
ATOM      7  C   UNL     1      49.137  49.060  16.357  1.00  0.00    +0.019 C 
BRANCH   7   8
ATOM      8  C   UNL     1      47.603  48.984  16.498  1.00  0.00    -0.016 C 
ATOM      9  C   UNL     1      47.001  50.272  17.060  1.00  0.00    +0.007 C 
ATOM     10  C   UNL     1      46.976  48.672  15.136  1.00  0.00    +0.007 C 
ENDBRANCH   7   8
ENDBRANCH   6   7
ENDBRANCH   4   6
ENDBRANCH   1   4
BRANCH   1  11
ATOM     11  C   UNL     1      52.225  52.140  18.745  1.00  0.00    +0.189 C 
BRANCH  11  12
ATOM     12  C   UNL     1      52.071  53.160  19.841  1.00  0.00    -0.031 A 
ATOM     13  C   UNL     1      52.253  54.523  19.580  1.00  0.00    +0.007 A 
ATOM     14  C   UNL     1      51.751  52.762  21.145  1.00  0.00    +0.007 A 
ATOM     15  C   UNL     1      52.108  55.467  20.602  1.00  0.00    +0.026 A 
ATOM     16  C   UNL     1      51.607  53.712  22.161  1.00  0.00    +0.026 A 
ATOM     17  C   UNL     1      51.734  55.076  21.889  1.00  0.00    +0.031 A 
BRANCH  17  18
ATOM     18  N   UNL     1      51.703  56.010  22.930  1.00  0.00    -0.399 N 
ATOM     19  H   UNL     1      52.625  56.267  23.270  1.00  0.00    +0.156 HD
ATOM     20  H   UNL     1      51.130  56.823  22.729  1.00  0.00    +0.156 HD
ENDBRANCH  17  18
ENDBRANCH  11  12
ENDBRANCH   1  11
TORSDOF 7
ENDMDL
