MODEL 1
REMARK VINA RESULT:    -7.449      0.000      0.000
REMARK INTER + INTRA:         -10.564
REMARK INTER:                 -10.062
REMARK INTRA:                  -0.502
REMARK UNBOUND:                -0.502
REMARK SMILES COc1cc(CNc2cccc(O)c2)cc(OC)c1O
REMARK SMILES IDX 6 1 5 2 3 3 4 4 19 5 16 6 15 7 2 8 1 9 20 10 17 12 18 13
REMARK SMILES IDX 7 14 8 16 9 17 14 18 10 19 12 20 11 21 13 22
REMARK H PARENT 20 11 7 15 13 23
ROOT
ATOM      1  C   UNL     1      49.693  54.175  18.442  1.00  0.00    +0.149 C 
ENDROOT
BRANCH   1   2
ATOM      2  C   UNL     1      49.728  52.663  18.508  1.00  0.00    -0.021 A 
ATOM      3  C   UNL     1      48.890  50.512  17.720  1.00  0.00    +0.164 A 
ATOM      4  C   UNL     1      48.871  51.907  17.685  1.00  0.00    +0.056 A 
ATOM      5  C   UNL     1      49.784  49.881  18.593  1.00  0.00    +0.200 A 
ATOM      6  C   UNL     1      50.653  50.612  19.418  1.00  0.00    +0.164 A 
ATOM      7  C   UNL     1      50.622  52.005  19.369  1.00  0.00    +0.056 A 
BRANCH   3   8
ATOM      8  O   UNL     1      48.097  49.693  16.961  1.00  0.00    -0.493 OA
ATOM      9  C   UNL     1      46.709  49.671  17.255  1.00  0.00    +0.278 C 
ENDBRANCH   3   8
BRANCH   5  10
ATOM     10  O   UNL     1      49.823  48.507  18.650  1.00  0.00    -0.502 OA
ATOM     11  H   UNL     1      50.236  48.299  19.509  1.00  0.00    +0.293 HD
ENDBRANCH   5  10
BRANCH   6  12
ATOM     12  O   UNL     1      51.472  49.850  20.214  1.00  0.00    -0.493 OA
ATOM     13  C   UNL     1      52.831  49.733  19.809  1.00  0.00    +0.278 C 
ENDBRANCH   6  12
ENDBRANCH   1   2
BRANCH   1  14
ATOM     14  N   UNL     1      48.634  54.665  19.312  1.00  0.00    -0.381 N 
ATOM     15  H   UNL     1      47.731  54.707  18.844  1.00  0.00    +0.160 HD
BRANCH  14  16
ATOM     16  C   UNL     1      48.864  55.787  20.115  1.00  0.00    +0.038 A 
ATOM     17  C   UNL     1      47.862  56.766  20.192  1.00  0.00    +0.026 A 
ATOM     18  C   UNL     1      49.974  55.929  20.953  1.00  0.00    +0.071 A 
ATOM     19  C   UNL     1      47.994  57.883  21.025  1.00  0.00    +0.006 A 
ATOM     20  C   UNL     1      50.106  57.044  21.781  1.00  0.00    +0.117 A 
ATOM     21  C   UNL     1      49.126  58.028  21.820  1.00  0.00    +0.046 A 
BRANCH  20  22
ATOM     22  O   UNL     1      51.225  57.128  22.557  1.00  0.00    -0.508 OA
ATOM     23  H   UNL     1      51.038  56.712  23.414  1.00  0.00    +0.293 HD
ENDBRANCH  20  22
ENDBRANCH  14  16
ENDBRANCH   1  14
TORSDOF 7
ENDMDL
MODEL 2
REMARK VINA RESULT:    -7.436      0.187      2.804
REMARK INTER + INTRA:         -10.547
REMARK INTER:                 -10.027
REMARK INTRA:                  -0.519
REMARK UNBOUND:                -0.502
REMARK SMILES COc1cc(CNc2cccc(O)c2)cc(OC)c1O
REMARK SMILES IDX 6 1 5 2 3 3 4 4 19 5 16 6 15 7 2 8 1 9 20 10 17 12 18 13
REMARK SMILES IDX 7 14 8 16 9 17 14 18 10 19 12 20 11 21 13 22
REMARK H PARENT 20 11 7 15 13 23
ROOT
ATOM      1  C   UNL     1      49.652  54.163  18.449  1.00  0.00    +0.149 C 
ENDROOT
BRANCH   1   2
ATOM      2  C   UNL     1      49.646  52.650  18.435  1.00  0.00    -0.021 A 
ATOM      3  C   UNL     1      50.532  50.543  19.290  1.00  0.00    +0.164 A 
ATOM      4  C   UNL     1      50.524  51.939  19.276  1.00  0.00    +0.056 A 
ATOM      5  C   UNL     1      49.644  49.866  18.446  1.00  0.00    +0.200 A 
ATOM      6  C   UNL     1      48.754  50.552  17.604  1.00  0.00    +0.164 A 
ATOM      7  C   UNL     1      48.758  51.946  17.604  1.00  0.00    +0.056 A 
BRANCH   3   8
ATOM      8  O   UNL     1      51.346  49.766  20.070  1.00  0.00    -0.493 OA
ATOM      9  C   UNL     1      52.729  49.748  19.754  1.00  0.00    +0.278 C 
ENDBRANCH   3   8
BRANCH   5  10
ATOM     10  O   UNL     1      49.630  48.491  18.437  1.00  0.00    -0.502 OA
ATOM     11  H   UNL     1      49.776  48.240  17.505  1.00  0.00    +0.293 HD
ENDBRANCH   5  10
BRANCH   6  12
ATOM     12  O   UNL     1      47.944  49.748  16.841  1.00  0.00    -0.493 OA
ATOM     13  C   UNL     1      46.559  49.739  17.167  1.00  0.00    +0.278 C 
ENDBRANCH   6  12
ENDBRANCH   1   2
BRANCH   1  14
ATOM     14  N   UNL     1      48.680  54.634  19.426  1.00  0.00    -0.381 N 
ATOM     15  H   UNL     1      47.734  54.664  19.053  1.00  0.00    +0.160 HD
BRANCH  14  16
ATOM     16  C   UNL     1      48.974  55.756  20.207  1.00  0.00    +0.038 A 
ATOM     17  C   UNL     1      48.013  56.775  20.296  1.00  0.00    +0.026 A 
ATOM     18  C   UNL     1      50.110  55.865  21.016  1.00  0.00    +0.071 A 
ATOM     19  C   UNL     1      48.209  57.896  21.109  1.00  0.00    +0.006 A 
ATOM     20  C   UNL     1      50.305  56.984  21.825  1.00  0.00    +0.117 A 
ATOM     21  C   UNL     1      49.367  58.007  21.874  1.00  0.00    +0.046 A 
BRANCH  20  22
ATOM     22  O   UNL     1      51.447  57.034  22.572  1.00  0.00    -0.508 OA
ATOM     23  H   UNL     1      51.206  56.938  23.508  1.00  0.00    +0.293 HD
ENDBRANCH  20  22
ENDBRANCH  14  16
ENDBRANCH   1  14
TORSDOF 7
ENDMDL
MODEL 3
REMARK VINA RESULT:    -7.077      3.098      4.973
REMARK INTER + INTRA:         -10.062
REMARK INTER:                  -9.405
REMARK INTRA:                  -0.657
REMARK UNBOUND:                -0.502
REMARK SMILES COc1cc(CNc2cccc(O)c2)cc(OC)c1O
REMARK SMILES IDX 6 1 5 2 3 3 4 4 19 5 16 6 15 7 2 8 1 9 20 10 17 12 18 13
REMARK SMILES IDX 7 14 8 16 9 17 14 18 10 19 12 20 11 21 13 22
REMARK H PARENT 20 11 7 15 13 23
ROOT
ATOM      1  C   UNL     1      49.672  48.867  19.322  1.00  0.00    +0.149 C 
ENDROOT
BRANCH   1   2
ATOM      2  C   UNL     1      48.510  48.735  18.361  1.00  0.00    -0.021 A 
ATOM      3  C   UNL     1      47.684  48.688  16.066  1.00  0.00    +0.164 A 
ATOM      4  C   UNL     1      48.737  48.817  16.974  1.00  0.00    +0.056 A 
ATOM      5  C   UNL     1      46.395  48.476  16.569  1.00  0.00    +0.200 A 
ATOM      6  C   UNL     1      46.145  48.384  17.947  1.00  0.00    +0.164 A 
ATOM      7  C   UNL     1      47.208  48.512  18.840  1.00  0.00    +0.056 A 
BRANCH   3   8
ATOM      8  O   UNL     1      47.805  48.753  14.703  1.00  0.00    -0.493 OA
ATOM      9  C   UNL     1      48.285  49.967  14.147  1.00  0.00    +0.278 C 
ENDBRANCH   3   8
BRANCH   5  10
ATOM     10  O   UNL     1      45.338  48.347  15.699  1.00  0.00    -0.502 OA
ATOM     11  H   UNL     1      44.540  48.456  16.249  1.00  0.00    +0.293 HD
ENDBRANCH   5  10
BRANCH   6  12
ATOM     12  O   UNL     1      44.831  48.169  18.283  1.00  0.00    -0.493 OA
ATOM     13  C   UNL     1      44.576  47.173  19.266  1.00  0.00    +0.278 C 
ENDBRANCH   6  12
ENDBRANCH   1   2
BRANCH   1  14
ATOM     14  N   UNL     1      50.570  49.908  18.842  1.00  0.00    -0.381 N 
ATOM     15  H   UNL     1      51.503  49.556  18.635  1.00  0.00    +0.160 HD
BRANCH  14  16
ATOM     16  C   UNL     1      50.608  51.143  19.496  1.00  0.00    +0.038 A 
ATOM     17  C   UNL     1      50.000  52.245  18.874  1.00  0.00    +0.026 A 
ATOM     18  C   UNL     1      51.095  51.320  20.795  1.00  0.00    +0.071 A 
ATOM     19  C   UNL     1      49.942  53.496  19.498  1.00  0.00    +0.006 A 
ATOM     20  C   UNL     1      51.038  52.569  21.416  1.00  0.00    +0.117 A 
ATOM     21  C   UNL     1      50.471  53.663  20.774  1.00  0.00    +0.046 A 
BRANCH  20  22
ATOM     22  O   UNL     1      51.551  52.674  22.676  1.00  0.00    -0.508 OA
ATOM     23  H   UNL     1      52.272  53.325  22.661  1.00  0.00    +0.293 HD
ENDBRANCH  20  22
ENDBRANCH  14  16
ENDBRANCH   1  14
TORSDOF 7
ENDMDL
MODEL 4
REMARK VINA RESULT:    -7.054      1.618      6.775
REMARK INTER + INTRA:         -10.031
REMARK INTER:                  -9.506
REMARK INTRA:                  -0.525
REMARK UNBOUND:                -0.502
REMARK SMILES COc1cc(CNc2cccc(O)c2)cc(OC)c1O
REMARK SMILES IDX 6 1 5 2 3 3 4 4 19 5 16 6 15 7 2 8 1 9 20 10 17 12 18 13
REMARK SMILES IDX 7 14 8 16 9 17 14 18 10 19 12 20 11 21 13 22
REMARK H PARENT 20 11 7 15 13 23
ROOT
ATOM      1  C   UNL     1      48.653  54.152  18.504  1.00  0.00    +0.149 C 
ENDROOT
BRANCH   1   2
ATOM      2  C   UNL     1      49.487  54.581  19.693  1.00  0.00    -0.021 A 
ATOM      3  C   UNL     1      51.105  54.017  21.429  1.00  0.00    +0.164 A 
ATOM      4  C   UNL     1      50.318  53.645  20.337  1.00  0.00    +0.056 A 
ATOM      5  C   UNL     1      51.047  55.345  21.868  1.00  0.00    +0.200 A 
ATOM      6  C   UNL     1      50.232  56.298  21.237  1.00  0.00    +0.164 A 
ATOM      7  C   UNL     1      49.454  55.910  20.147  1.00  0.00    +0.056 A 
BRANCH   3   8
ATOM      8  O   UNL     1      51.942  53.182  22.119  1.00  0.00    -0.493 OA
ATOM      9  C   UNL     1      51.949  51.812  21.750  1.00  0.00    +0.278 C 
ENDBRANCH   3   8
BRANCH   5  10
ATOM     10  O   UNL     1      51.810  55.740  22.942  1.00  0.00    -0.502 OA
ATOM     11  H   UNL     1      52.457  55.022  23.073  1.00  0.00    +0.293 HD
ENDBRANCH   5  10
BRANCH   6  12
ATOM     12  O   UNL     1      50.288  57.558  21.780  1.00  0.00    -0.493 OA
ATOM     13  C   UNL     1      49.051  58.245  21.934  1.00  0.00    +0.278 C 
ENDBRANCH   6  12
ENDBRANCH   1   2
BRANCH   1  14
ATOM     14  N   UNL     1      49.351  53.091  17.792  1.00  0.00    -0.381 N 
ATOM     15  H   UNL     1      49.664  53.380  16.868  1.00  0.00    +0.160 HD
BRANCH  14  16
ATOM     16  C   UNL     1      48.819  51.798  17.786  1.00  0.00    +0.038 A 
ATOM     17  C   UNL     1      47.557  51.599  17.204  1.00  0.00    +0.026 A 
ATOM     18  C   UNL     1      49.525  50.664  18.202  1.00  0.00    +0.071 A 
ATOM     19  C   UNL     1      46.991  50.324  17.104  1.00  0.00    +0.006 A 
ATOM     20  C   UNL     1      48.958  49.393  18.103  1.00  0.00    +0.117 A 
ATOM     21  C   UNL     1      47.691  49.213  17.563  1.00  0.00    +0.046 A 
BRANCH  20  22
ATOM     22  O   UNL     1      49.696  48.335  18.548  1.00  0.00    -0.508 OA
ATOM     23  H   UNL     1      49.234  47.515  18.307  1.00  0.00    +0.293 HD
ENDBRANCH  20  22
ENDBRANCH  14  16
ENDBRANCH   1  14
TORSDOF 7
ENDMDL
MODEL 5
REMARK VINA RESULT:    -6.953      2.361      6.952
REMARK INTER + INTRA:          -9.894
REMARK INTER:                  -9.276
REMARK INTRA:                  -0.618
REMARK UNBOUND:                -0.502
REMARK SMILES COc1cc(CNc2cccc(O)c2)cc(OC)c1O
REMARK SMILES IDX 6 1 5 2 3 3 4 4 19 5 16 6 15 7 2 8 1 9 20 10 17 12 18 13
REMARK SMILES IDX 7 14 8 16 9 17 14 18 10 19 12 20 11 21 13 22
REMARK H PARENT 20 11 7 15 13 23
ROOT
ATOM      1  C   UNL     1      52.187  53.942  18.737  1.00  0.00    +0.149 C 
ENDROOT
BRANCH   1   2
ATOM      2  C   UNL     1      51.648  55.009  19.666  1.00  0.00    -0.021 A 
ATOM      3  C   UNL     1      49.737  56.224  20.575  1.00  0.00    +0.164 A 
ATOM      4  C   UNL     1      50.262  55.254  19.719  1.00  0.00    +0.056 A 
ATOM      5  C   UNL     1      50.624  56.949  21.380  1.00  0.00    +0.200 A 
ATOM      6  C   UNL     1      52.008  56.718  21.350  1.00  0.00    +0.164 A 
ATOM      7  C   UNL     1      52.515  55.744  20.492  1.00  0.00    +0.056 A 
BRANCH   3   8
ATOM      8  O   UNL     1      48.409  56.534  20.696  1.00  0.00    -0.493 OA
ATOM      9  C   UNL     1      47.830  57.337  19.680  1.00  0.00    +0.278 C 
ENDBRANCH   3   8
BRANCH   5  10
ATOM     10  O   UNL     1      50.136  57.913  22.231  1.00  0.00    -0.502 OA
ATOM     11  H   UNL     1      50.900  58.186  22.773  1.00  0.00    +0.293 HD
ENDBRANCH   5  10
BRANCH   6  12
ATOM     12  O   UNL     1      52.744  57.505  22.201  1.00  0.00    -0.493 OA
ATOM     13  C   UNL     1      53.865  58.179  21.642  1.00  0.00    +0.278 C 
ENDBRANCH   6  12
ENDBRANCH   1   2
BRANCH   1  14
ATOM     14  N   UNL     1      51.121  53.001  18.424  1.00  0.00    -0.381 N 
ATOM     15  H   UNL     1      50.196  53.418  18.498  1.00  0.00    +0.160 HD
BRANCH  14  16
ATOM     16  C   UNL     1      51.161  51.710  18.960  1.00  0.00    +0.038 A 
ATOM     17  C   UNL     1      49.979  50.953  18.960  1.00  0.00    +0.026 A 
ATOM     18  C   UNL     1      52.336  51.075  19.372  1.00  0.00    +0.071 A 
ATOM     19  C   UNL     1      49.957  49.632  19.420  1.00  0.00    +0.006 A 
ATOM     20  C   UNL     1      52.313  49.758  19.832  1.00  0.00    +0.117 A 
ATOM     21  C   UNL     1      51.129  49.032  19.867  1.00  0.00    +0.046 A 
BRANCH  20  22
ATOM     22  O   UNL     1      53.494  49.208  20.239  1.00  0.00    -0.508 OA
ATOM     23  H   UNL     1      53.485  48.262  20.017  1.00  0.00    +0.293 HD
ENDBRANCH  20  22
ENDBRANCH  14  16
ENDBRANCH   1  14
TORSDOF 7
ENDMDL
