MODEL 1
REMARK VINA RESULT:    -6.933      0.000      0.000
REMARK INTER + INTRA:          -9.820
REMARK INTER:                  -9.163
REMARK INTRA:                  -0.658
REMARK UNBOUND:                -0.658
REMARK SMILES COc1cc(-c2[nH]c(C)c(C(C)=O)c2N)cc(OC)c1OC
REMARK SMILES IDX 5 1 16 2 17 3 20 4 3 5 4 6 6 7 8 8 10 9 7 10 14 11 9 12
REMARK SMILES IDX 11 14 13 15 12 16 15 17 18 20 19 21 2 22 1 23 21 24 22 25
REMARK H PARENT 7 13 15 18 15 19
ROOT
ATOM      1  C   UNL     1      47.499  49.360  17.416  1.00  0.00    +0.008 A 
ATOM      2  C   UNL     1      46.453  48.917  18.241  1.00  0.00    +0.061 A 
ATOM      3  C   UNL     1      45.336  48.280  17.696  1.00  0.00    +0.165 A 
ATOM      4  C   UNL     1      45.285  48.073  16.309  1.00  0.00    +0.203 A 
ATOM      5  C   UNL     1      46.307  48.536  15.464  1.00  0.00    +0.165 A 
ATOM      6  C   UNL     1      47.418  49.167  16.029  1.00  0.00    +0.061 A 
ENDROOT
BRANCH   1   7
ATOM      7  C   UNL     1      48.667  50.014  18.006  1.00  0.00    +0.070 A 
ATOM      8  C   UNL     1      50.082  51.727  18.475  1.00  0.00    +0.025 A 
ATOM      9  C   UNL     1      50.635  50.581  19.044  1.00  0.00    +0.061 A 
ATOM     10  N   UNL     1      48.908  51.358  17.853  1.00  0.00    -0.356 N 
ATOM     11  C   UNL     1      49.730  49.521  18.733  1.00  0.00    +0.069 A 
ATOM     12  C   UNL     1      50.512  53.151  18.445  1.00  0.00    +0.065 C 
ATOM     13  H   UNL     1      48.306  51.984  17.334  1.00  0.00    +0.166 HD
BRANCH   9  14
ATOM     14  C   UNL     1      51.875  50.444  19.822  1.00  0.00    +0.163 C 
ATOM     15  O   UNL     1      52.791  49.713  19.435  1.00  0.00    -0.294 OA
ATOM     16  C   UNL     1      52.040  51.199  21.115  1.00  0.00    +0.093 C 
ENDBRANCH   9  14
BRANCH  11  17
ATOM     17  N   UNL     1      49.882  48.233  19.100  1.00  0.00    -0.396 N 
ATOM     18  H   UNL     1      50.645  47.972  19.717  1.00  0.00    +0.156 HD
ATOM     19  H   UNL     1      49.691  47.517  18.394  1.00  0.00    +0.156 HD
ENDBRANCH  11  17
ENDBRANCH   1   7
BRANCH   3  20
ATOM     20  O   UNL     1      44.271  47.813  18.423  1.00  0.00    -0.493 OA
ATOM     21  C   UNL     1      44.562  47.034  19.576  1.00  0.00    +0.278 C 
ENDBRANCH   3  20
BRANCH   5  22
ATOM     22  O   UNL     1      46.146  48.301  14.122  1.00  0.00    -0.493 OA
ATOM     23  C   UNL     1      46.954  49.063  13.234  1.00  0.00    +0.278 C 
ENDBRANCH   5  22
BRANCH   4  24
ATOM     24  O   UNL     1      44.172  47.481  15.753  1.00  0.00    -0.490 OA
ATOM     25  C   UNL     1      44.368  46.070  15.668  1.00  0.00    +0.278 C 
ENDBRANCH   4  24
TORSDOF 6
ENDMDL
MODEL 2
REMARK VINA RESULT:    -6.907      0.112      2.763
REMARK INTER + INTRA:          -9.786
REMARK INTER:                  -9.134
REMARK INTRA:                  -0.652
REMARK UNBOUND:                -0.658
REMARK SMILES COc1cc(-c2[nH]c(C)c(C(C)=O)c2N)cc(OC)c1OC
REMARK SMILES IDX 5 1 16 2 17 3 20 4 3 5 4 6 6 7 8 8 10 9 7 10 14 11 9 12
REMARK SMILES IDX 11 14 13 15 12 16 15 17 18 20 19 21 2 22 1 23 21 24 22 25
REMARK H PARENT 7 13 15 18 15 19
ROOT
ATOM      1  C   UNL     1      47.543  49.367  17.516  1.00  0.00    +0.008 A 
ATOM      2  C   UNL     1      47.477  49.144  16.132  1.00  0.00    +0.061 A 
ATOM      3  C   UNL     1      46.357  48.538  15.560  1.00  0.00    +0.165 A 
ATOM      4  C   UNL     1      45.288  48.171  16.392  1.00  0.00    +0.203 A 
ATOM      5  C   UNL     1      45.348  48.358  17.783  1.00  0.00    +0.165 A 
ATOM      6  C   UNL     1      46.476  48.970  18.335  1.00  0.00    +0.061 A 
ENDROOT
BRANCH   1   7
ATOM      7  C   UNL     1      48.719  50.015  18.095  1.00  0.00    +0.070 A 
ATOM      8  C   UNL     1      50.135  51.726  18.570  1.00  0.00    +0.025 A 
ATOM      9  C   UNL     1      50.706  50.572  19.103  1.00  0.00    +0.061 A 
ATOM     10  N   UNL     1      48.950  51.363  17.966  1.00  0.00    -0.356 N 
ATOM     11  C   UNL     1      49.801  49.514  18.789  1.00  0.00    +0.069 A 
ATOM     12  C   UNL     1      50.557  53.153  18.562  1.00  0.00    +0.065 C 
ATOM     13  H   UNL     1      48.334  51.997  17.474  1.00  0.00    +0.166 HD
BRANCH   9  14
ATOM     14  C   UNL     1      51.964  50.426  19.851  1.00  0.00    +0.163 C 
ATOM     15  O   UNL     1      52.885  49.728  19.417  1.00  0.00    -0.294 OA
ATOM     16  C   UNL     1      52.141  51.129  21.171  1.00  0.00    +0.093 C 
ENDBRANCH   9  14
BRANCH  11  17
ATOM     17  N   UNL     1      49.968  48.218  19.124  1.00  0.00    -0.396 N 
ATOM     18  H   UNL     1      49.169  47.670  19.429  1.00  0.00    +0.156 HD
ATOM     19  H   UNL     1      50.824  47.969  19.626  1.00  0.00    +0.156 HD
ENDBRANCH  11  17
ENDBRANCH   1   7
BRANCH   3  20
ATOM     20  O   UNL     1      46.204  48.283  14.220  1.00  0.00    -0.493 OA
ATOM     21  C   UNL     1      46.939  49.097  13.316  1.00  0.00    +0.278 C 
ENDBRANCH   3  20
BRANCH   5  22
ATOM     22  O   UNL     1      44.257  47.943  18.504  1.00  0.00    -0.493 OA
ATOM     23  C   UNL     1      44.501  47.041  19.576  1.00  0.00    +0.278 C 
ENDBRANCH   5  22
BRANCH   4  24
ATOM     24  O   UNL     1      44.192  47.536  15.847  1.00  0.00    -0.490 OA
ATOM     25  C   UNL     1      44.446  46.136  15.750  1.00  0.00    +0.278 C 
ENDBRANCH   4  24
TORSDOF 6
ENDMDL
MODEL 3
REMARK VINA RESULT:    -6.779      2.067      7.102
REMARK INTER + INTRA:          -9.616
REMARK INTER:                  -8.884
REMARK INTRA:                  -0.731
REMARK UNBOUND:                -0.658
REMARK SMILES COc1cc(-c2[nH]c(C)c(C(C)=O)c2N)cc(OC)c1OC
REMARK SMILES IDX 5 1 16 2 17 3 20 4 3 5 4 6 6 7 8 8 10 9 7 10 14 11 9 12
REMARK SMILES IDX 11 14 13 15 12 16 15 17 18 20 19 21 2 22 1 23 21 24 22 25
REMARK H PARENT 7 13 15 18 15 19
ROOT
ATOM      1  C   UNL     1      48.939  50.592  17.830  1.00  0.00    +0.008 A 
ATOM      2  C   UNL     1      50.240  50.117  18.053  1.00  0.00    +0.061 A 
ATOM      3  C   UNL     1      51.293  51.004  18.290  1.00  0.00    +0.165 A 
ATOM      4  C   UNL     1      51.023  52.381  18.319  1.00  0.00    +0.203 A 
ATOM      5  C   UNL     1      49.733  52.877  18.067  1.00  0.00    +0.165 A 
ATOM      6  C   UNL     1      48.693  51.974  17.837  1.00  0.00    +0.061 A 
ENDROOT
BRANCH   1   7
ATOM      7  C   UNL     1      47.847  49.647  17.597  1.00  0.00    +0.070 A 
ATOM      8  C   UNL     1      46.238  48.143  18.151  1.00  0.00    +0.025 A 
ATOM      9  C   UNL     1      46.255  48.220  16.759  1.00  0.00    +0.061 A 
ATOM     10  N   UNL     1      47.206  49.001  18.627  1.00  0.00    -0.356 N 
ATOM     11  C   UNL     1      47.274  49.168  16.439  1.00  0.00    +0.069 A 
ATOM     12  C   UNL     1      45.412  47.363  19.111  1.00  0.00    +0.065 C 
ATOM     13  H   UNL     1      47.434  49.131  19.604  1.00  0.00    +0.166 HD
BRANCH   9  14
ATOM     14  C   UNL     1      45.412  47.510  15.786  1.00  0.00    +0.163 C 
ATOM     15  O   UNL     1      44.686  48.128  15.002  1.00  0.00    -0.294 OA
ATOM     16  C   UNL     1      45.423  46.004  15.738  1.00  0.00    +0.093 C 
ENDBRANCH   9  14
BRANCH  11  17
ATOM     17  N   UNL     1      47.622  49.547  15.192  1.00  0.00    -0.396 N 
ATOM     18  H   UNL     1      47.172  49.116  14.391  1.00  0.00    +0.156 HD
ATOM     19  H   UNL     1      48.611  49.749  15.021  1.00  0.00    +0.156 HD
ENDBRANCH  11  17
ENDBRANCH   1   7
BRANCH   3  20
ATOM     20  O   UNL     1      52.593  50.631  18.519  1.00  0.00    -0.493 OA
ATOM     21  C   UNL     1      52.854  49.875  19.694  1.00  0.00    +0.278 C 
ENDBRANCH   3  20
BRANCH   5  22
ATOM     22  O   UNL     1      49.585  54.241  18.098  1.00  0.00    -0.493 OA
ATOM     23  C   UNL     1      48.723  54.772  19.096  1.00  0.00    +0.278 C 
ENDBRANCH   5  22
BRANCH   4  24
ATOM     24  O   UNL     1      52.058  53.271  18.511  1.00  0.00    -0.490 OA
ATOM     25  C   UNL     1      52.189  53.563  19.902  1.00  0.00    +0.278 C 
ENDBRANCH   4  24
TORSDOF 6
ENDMDL
MODEL 4
REMARK VINA RESULT:    -6.729      2.124      7.040
REMARK INTER + INTRA:          -9.550
REMARK INTER:                  -8.952
REMARK INTRA:                  -0.598
REMARK UNBOUND:                -0.658
REMARK SMILES COc1cc(-c2[nH]c(C)c(C(C)=O)c2N)cc(OC)c1OC
REMARK SMILES IDX 5 1 16 2 17 3 20 4 3 5 4 6 6 7 8 8 10 9 7 10 14 11 9 12
REMARK SMILES IDX 11 14 13 15 12 16 15 17 18 20 19 21 2 22 1 23 21 24 22 25
REMARK H PARENT 7 13 15 18 15 19
ROOT
ATOM      1  C   UNL     1      48.962  50.430  17.918  1.00  0.00    +0.008 A 
ATOM      2  C   UNL     1      48.677  51.802  17.850  1.00  0.00    +0.061 A 
ATOM      3  C   UNL     1      49.687  52.751  18.024  1.00  0.00    +0.165 A 
ATOM      4  C   UNL     1      51.000  52.306  18.251  1.00  0.00    +0.203 A 
ATOM      5  C   UNL     1      51.299  50.938  18.353  1.00  0.00    +0.165 A 
ATOM      6  C   UNL     1      50.275  50.005  18.171  1.00  0.00    +0.061 A 
ENDROOT
BRANCH   1   7
ATOM      7  C   UNL     1      47.892  49.453  17.720  1.00  0.00    +0.070 A 
ATOM      8  C   UNL     1      46.261  47.995  18.330  1.00  0.00    +0.025 A 
ATOM      9  C   UNL     1      46.363  47.926  16.942  1.00  0.00    +0.061 A 
ATOM     10  N   UNL     1      47.193  48.910  18.771  1.00  0.00    -0.356 N 
ATOM     11  C   UNL     1      47.395  48.847  16.585  1.00  0.00    +0.069 A 
ATOM     12  C   UNL     1      45.381  47.310  19.315  1.00  0.00    +0.065 C 
ATOM     13  H   UNL     1      47.359  49.145  19.741  1.00  0.00    +0.166 HD
BRANCH   9  14
ATOM     14  C   UNL     1      45.586  47.107  15.999  1.00  0.00    +0.163 C 
ATOM     15  O   UNL     1      45.825  45.905  15.855  1.00  0.00    -0.294 OA
ATOM     16  C   UNL     1      44.484  47.735  15.187  1.00  0.00    +0.093 C 
ENDBRANCH   9  14
BRANCH  11  17
ATOM     17  N   UNL     1      47.817  49.098  15.330  1.00  0.00    -0.396 N 
ATOM     18  H   UNL     1      47.535  49.956  14.866  1.00  0.00    +0.156 HD
ATOM     19  H   UNL     1      47.869  48.305  14.684  1.00  0.00    +0.156 HD
ENDBRANCH  11  17
ENDBRANCH   1   7
BRANCH   3  20
ATOM     20  O   UNL     1      49.503  54.109  17.973  1.00  0.00    -0.493 OA
ATOM     21  C   UNL     1      48.699  54.694  18.988  1.00  0.00    +0.278 C 
ENDBRANCH   3  20
BRANCH   5  22
ATOM     22  O   UNL     1      52.610  50.614  18.598  1.00  0.00    -0.493 OA
ATOM     23  C   UNL     1      52.863  49.741  19.691  1.00  0.00    +0.278 C 
ENDBRANCH   5  22
BRANCH   4  24
ATOM     24  O   UNL     1      52.001  53.230  18.464  1.00  0.00    -0.490 OA
ATOM     25  C   UNL     1      52.116  53.502  19.859  1.00  0.00    +0.278 C 
ENDBRANCH   4  24
TORSDOF 6
ENDMDL
MODEL 5
REMARK VINA RESULT:    -6.556      2.955      7.404
REMARK INTER + INTRA:          -9.322
REMARK INTER:                  -8.821
REMARK INTRA:                  -0.501
REMARK UNBOUND:                -0.658
REMARK SMILES COc1cc(-c2[nH]c(C)c(C(C)=O)c2N)cc(OC)c1OC
REMARK SMILES IDX 5 1 16 2 17 3 20 4 3 5 4 6 6 7 8 8 10 9 7 10 14 11 9 12
REMARK SMILES IDX 11 14 13 15 12 16 15 17 18 20 19 21 2 22 1 23 21 24 22 25
REMARK H PARENT 7 13 15 18 15 19
ROOT
ATOM      1  C   UNL     1      49.507  52.233  18.076  1.00  0.00    +0.008 A 
ATOM      2  C   UNL     1      48.861  53.476  17.998  1.00  0.00    +0.061 A 
ATOM      3  C   UNL     1      49.083  54.457  18.967  1.00  0.00    +0.165 A 
ATOM      4  C   UNL     1      49.979  54.183  20.013  1.00  0.00    +0.203 A 
ATOM      5  C   UNL     1      50.611  52.934  20.125  1.00  0.00    +0.165 A 
ATOM      6  C   UNL     1      50.379  51.968  19.143  1.00  0.00    +0.061 A 
ENDROOT
BRANCH   1   7
ATOM      7  C   UNL     1      49.272  51.223  17.044  1.00  0.00    +0.070 A 
ATOM      8  C   UNL     1      49.777  49.899  15.269  1.00  0.00    +0.025 A 
ATOM      9  C   UNL     1      48.436  49.671  15.572  1.00  0.00    +0.061 A 
ATOM     10  N   UNL     1      50.251  50.838  16.160  1.00  0.00    -0.356 N 
ATOM     11  C   UNL     1      48.144  50.515  16.686  1.00  0.00    +0.069 A 
ATOM     12  C   UNL     1      50.692  49.334  14.241  1.00  0.00    +0.065 C 
ATOM     13  H   UNL     1      51.191  51.213  16.159  1.00  0.00    +0.166 HD
BRANCH   9  14
ATOM     14  C   UNL     1      47.486  48.755  14.923  1.00  0.00    +0.163 C 
ATOM     15  O   UNL     1      47.050  48.988  13.792  1.00  0.00    -0.294 OA
ATOM     16  C   UNL     1      47.026  47.514  15.641  1.00  0.00    +0.093 C 
ENDBRANCH   9  14
BRANCH  11  17
ATOM     17  N   UNL     1      46.949  50.605  17.305  1.00  0.00    -0.396 N 
ATOM     18  H   UNL     1      46.912  50.707  18.314  1.00  0.00    +0.156 HD
ATOM     19  H   UNL     1      46.188  50.024  16.944  1.00  0.00    +0.156 HD
ENDBRANCH  11  17
ENDBRANCH   1   7
BRANCH   3  20
ATOM     20  O   UNL     1      48.499  55.698  18.972  1.00  0.00    -0.493 OA
ATOM     21  C   UNL     1      48.593  56.464  17.778  1.00  0.00    +0.278 C 
ENDBRANCH   3  20
BRANCH   5  22
ATOM     22  O   UNL     1      51.449  52.765  21.198  1.00  0.00    -0.493 OA
ATOM     23  C   UNL     1      51.980  51.462  21.400  1.00  0.00    +0.278 C 
ENDBRANCH   5  22
BRANCH   4  24
ATOM     24  O   UNL     1      50.178  55.126  20.999  1.00  0.00    -0.490 OA
ATOM     25  C   UNL     1      51.279  55.963  20.649  1.00  0.00    +0.278 C 
ENDBRANCH   4  24
TORSDOF 6
ENDMDL
