MODEL 1
REMARK VINA RESULT:    -7.391      0.000      0.000
REMARK INTER + INTRA:         -10.146
REMARK INTER:                  -9.552
REMARK INTRA:                  -0.594
REMARK UNBOUND:                -0.594
REMARK SMILES C[C@@H]1[C@@H](C)CCC[C@H]1NC(=O)NC(=O)CCCC(=O)[O-]
REMARK SMILES IDX 15 1 13 2 9 3 10 4 11 5 12 6 14 7 8 10 3 11 5 12 2 13 6 14
REMARK SMILES IDX 7 15 4 16 1 17 16 18 17 19 18 20 19 21 20 22
REMARK H PARENT 9 8 12 9
ROOT
ATOM      1  C   UNL     1      51.838  50.066  19.381  1.00  0.00    +0.101 C 
ENDROOT
BRANCH   1   2
ATOM      2  C   UNL     1      52.153  51.050  18.271  1.00  0.00    +0.227 C 
ATOM      3  N   UNL     1      49.717  49.480  17.225  1.00  0.00    -0.335 N 
ATOM      4  C   UNL     1      50.237  50.705  16.910  1.00  0.00    +0.321 C 
ATOM      5  O   UNL     1      49.576  51.635  16.462  1.00  0.00    -0.248 OA
ATOM      6  N   UNL     1      51.596  50.795  17.038  1.00  0.00    -0.278 N 
ATOM      7  O   UNL     1      52.846  52.055  18.413  1.00  0.00    -0.275 OA
ATOM      8  H   UNL     1      50.335  48.804  17.650  1.00  0.00    +0.165 HD
ATOM      9  H   UNL     1      51.879  51.599  16.486  1.00  0.00    +0.174 HD
BRANCH   3  10
ATOM     10  C   UNL     1      48.282  49.233  17.284  1.00  0.00    +0.087 C 
ATOM     11  C   UNL     1      46.451  47.696  16.275  1.00  0.00    -0.009 C 
ATOM     12  C   UNL     1      45.662  48.333  17.426  1.00  0.00    +0.004 C 
ATOM     13  C   UNL     1      47.825  48.392  16.064  1.00  0.00    +0.011 C 
ATOM     14  C   UNL     1      46.417  48.327  18.753  1.00  0.00    +0.002 C 
ATOM     15  C   UNL     1      47.921  48.542  18.603  1.00  0.00    +0.025 C 
ATOM     16  C   UNL     1      46.622  46.188  16.493  1.00  0.00    +0.008 C 
ATOM     17  C   UNL     1      47.783  49.279  14.811  1.00  0.00    +0.010 C 
ENDBRANCH   3  10
ENDBRANCH   1   2
BRANCH   1  18
ATOM     18  C   UNL     1      50.874  50.620  20.425  1.00  0.00    +0.016 C 
BRANCH  18  19
ATOM     19  C   UNL     1      51.640  51.409  21.484  1.00  0.00    +0.053 C 
BRANCH  19  20
ATOM     20  C   UNL     1      51.249  52.882  21.401  1.00  0.00    +0.041 C 
ATOM     21  O   UNL     1      50.222  53.123  20.709  1.00  0.00    -0.550 OA
ATOM     22  O   UNL     1      51.993  53.666  22.055  1.00  0.00    -0.550 OA
ENDBRANCH  19  20
ENDBRANCH  18  19
ENDBRANCH   1  18
TORSDOF 5
ENDMDL
MODEL 2
REMARK VINA RESULT:    -7.324      2.969      4.143
REMARK INTER + INTRA:         -10.058
REMARK INTER:                  -9.372
REMARK INTRA:                  -0.686
REMARK UNBOUND:                -0.594
REMARK SMILES C[C@@H]1[C@@H](C)CCC[C@H]1NC(=O)NC(=O)CCCC(=O)[O-]
REMARK SMILES IDX 15 1 13 2 9 3 10 4 11 5 12 6 14 7 8 10 3 11 5 12 2 13 6 14
REMARK SMILES IDX 7 15 4 16 1 17 16 18 17 19 18 20 19 21 20 22
REMARK H PARENT 9 8 12 9
ROOT
ATOM      1  C   UNL     1      49.794  54.882  18.776  1.00  0.00    +0.101 C 
ENDROOT
BRANCH   1   2
ATOM      2  C   UNL     1      51.287  54.862  19.039  1.00  0.00    +0.227 C 
ATOM      3  N   UNL     1      50.493  51.887  18.946  1.00  0.00    -0.335 N 
ATOM      4  C   UNL     1      51.684  52.537  18.770  1.00  0.00    +0.321 C 
ATOM      5  O   UNL     1      52.606  52.104  18.086  1.00  0.00    -0.248 OA
ATOM      6  N   UNL     1      51.821  53.682  19.505  1.00  0.00    -0.278 N 
ATOM      7  O   UNL     1      52.037  55.817  18.842  1.00  0.00    -0.275 OA
ATOM      8  H   UNL     1      49.776  52.361  19.475  1.00  0.00    +0.165 HD
ATOM      9  H   UNL     1      52.816  53.877  19.542  1.00  0.00    +0.174 HD
BRANCH   3  10
ATOM     10  C   UNL     1      50.110  50.729  18.148  1.00  0.00    +0.087 C 
ATOM     11  C   UNL     1      48.578  48.638  18.224  1.00  0.00    -0.009 C 
ATOM     12  C   UNL     1      48.962  48.633  16.740  1.00  0.00    +0.004 C 
ATOM     13  C   UNL     1      49.420  49.662  19.035  1.00  0.00    +0.011 C 
ATOM     14  C   UNL     1      48.830  50.002  16.076  1.00  0.00    +0.002 C 
ATOM     15  C   UNL     1      49.203  51.165  16.993  1.00  0.00    +0.025 C 
ATOM     16  C   UNL     1      47.076  48.891  18.403  1.00  0.00    +0.008 C 
ATOM     17  C   UNL     1      50.475  48.931  19.880  1.00  0.00    +0.010 C 
ENDBRANCH   3  10
ENDBRANCH   1   2
BRANCH   1  18
ATOM     18  C   UNL     1      48.960  55.087  20.037  1.00  0.00    +0.016 C 
BRANCH  18  19
ATOM     19  C   UNL     1      48.447  56.523  20.103  1.00  0.00    +0.053 C 
BRANCH  19  20
ATOM     20  C   UNL     1      49.085  57.236  21.291  1.00  0.00    +0.041 C 
ATOM     21  O   UNL     1      48.478  58.273  21.679  1.00  0.00    -0.550 OA
ATOM     22  O   UNL     1      50.124  56.683  21.748  1.00  0.00    -0.550 OA
ENDBRANCH  19  20
ENDBRANCH  18  19
ENDBRANCH   1  18
TORSDOF 5
ENDMDL
MODEL 3
REMARK VINA RESULT:    -7.132      2.993      7.178
REMARK INTER + INTRA:          -9.811
REMARK INTER:                  -8.865
REMARK INTRA:                  -0.946
REMARK UNBOUND:                -0.594
REMARK SMILES C[C@@H]1[C@@H](C)CCC[C@H]1NC(=O)NC(=O)CCCC(=O)[O-]
REMARK SMILES IDX 15 1 13 2 9 3 10 4 11 5 12 6 14 7 8 10 3 11 5 12 2 13 6 14
REMARK SMILES IDX 7 15 4 16 1 17 16 18 17 19 18 20 19 21 20 22
REMARK H PARENT 9 8 12 9
ROOT
ATOM      1  C   UNL     1      52.385  51.282  18.695  1.00  0.00    +0.101 C 
ENDROOT
BRANCH   1   2
ATOM      2  C   UNL     1      52.330  50.412  19.936  1.00  0.00    +0.227 C 
ATOM      3  N   UNL     1      51.810  53.261  20.985  1.00  0.00    -0.335 N 
ATOM      4  C   UNL     1      51.528  52.020  21.487  1.00  0.00    +0.321 C 
ATOM      5  O   UNL     1      50.600  51.786  22.253  1.00  0.00    -0.248 OA
ATOM      6  N   UNL     1      52.433  51.052  21.150  1.00  0.00    -0.278 N 
ATOM      7  O   UNL     1      52.180  49.191  19.918  1.00  0.00    -0.275 OA
ATOM      8  H   UNL     1      52.557  53.334  20.310  1.00  0.00    +0.165 HD
ATOM      9  H   UNL     1      52.306  50.299  21.819  1.00  0.00    +0.174 HD
BRANCH   3  10
ATOM     10  C   UNL     1      50.892  54.385  21.121  1.00  0.00    +0.087 C 
ATOM     11  C   UNL     1      50.867  56.922  21.657  1.00  0.00    -0.009 C 
ATOM     12  C   UNL     1      49.438  56.747  21.130  1.00  0.00    +0.004 C 
ATOM     13  C   UNL     1      51.574  55.555  21.874  1.00  0.00    +0.011 C 
ATOM     14  C   UNL     1      49.367  55.953  19.827  1.00  0.00    +0.002 C 
ATOM     15  C   UNL     1      50.393  54.825  19.741  1.00  0.00    +0.025 C 
ATOM     16  C   UNL     1      51.688  57.829  20.732  1.00  0.00    +0.008 C 
ATOM     17  C   UNL     1      51.651  55.230  23.374  1.00  0.00    +0.010 C 
ENDBRANCH   3  10
ENDBRANCH   1   2
BRANCH   1  18
ATOM     18  C   UNL     1      51.246  51.015  17.717  1.00  0.00    +0.016 C 
BRANCH  18  19
ATOM     19  C   UNL     1      49.908  51.386  18.351  1.00  0.00    +0.053 C 
BRANCH  19  20
ATOM     20  C   UNL     1      48.885  50.294  18.056  1.00  0.00    +0.041 C 
ATOM     21  O   UNL     1      47.964  50.626  17.260  1.00  0.00    -0.550 OA
ATOM     22  O   UNL     1      49.106  49.190  18.630  1.00  0.00    -0.550 OA
ENDBRANCH  19  20
ENDBRANCH  18  19
ENDBRANCH   1  18
TORSDOF 5
ENDMDL
MODEL 4
REMARK VINA RESULT:    -7.129      2.974      7.150
REMARK INTER + INTRA:          -9.806
REMARK INTER:                  -9.799
REMARK INTRA:                  -0.008
REMARK UNBOUND:                -0.594
REMARK SMILES C[C@@H]1[C@@H](C)CCC[C@H]1NC(=O)NC(=O)CCCC(=O)[O-]
REMARK SMILES IDX 15 1 13 2 9 3 10 4 11 5 12 6 14 7 8 10 3 11 5 12 2 13 6 14
REMARK SMILES IDX 7 15 4 16 1 17 16 18 17 19 18 20 19 21 20 22
REMARK H PARENT 9 8 12 9
ROOT
ATOM      1  C   UNL     1      51.009  50.662  19.673  1.00  0.00    +0.101 C 
ENDROOT
BRANCH   1   2
ATOM      2  C   UNL     1      51.832  51.136  18.491  1.00  0.00    +0.227 C 
ATOM      3  N   UNL     1      50.338  53.659  19.437  1.00  0.00    -0.335 N 
ATOM      4  C   UNL     1      51.477  53.474  18.701  1.00  0.00    +0.321 C 
ATOM      5  O   UNL     1      52.395  54.285  18.646  1.00  0.00    -0.248 OA
ATOM      6  N   UNL     1      51.479  52.343  17.932  1.00  0.00    -0.278 N 
ATOM      7  O   UNL     1      52.792  50.524  18.027  1.00  0.00    -0.275 OA
ATOM      8  H   UNL     1      49.672  52.901  19.465  1.00  0.00    +0.165 HD
ATOM      9  H   UNL     1      52.190  52.486  17.221  1.00  0.00    +0.174 HD
BRANCH   3  10
ATOM     10  C   UNL     1      50.207  54.729  20.417  1.00  0.00    +0.087 C 
ATOM     11  C   UNL     1      51.640  56.238  21.967  1.00  0.00    -0.009 C 
ATOM     12  C   UNL     1      50.292  56.963  22.060  1.00  0.00    +0.004 C 
ATOM     13  C   UNL     1      51.509  54.866  21.248  1.00  0.00    +0.011 C 
ATOM     14  C   UNL     1      49.631  57.188  20.702  1.00  0.00    +0.002 C 
ATOM     15  C   UNL     1      49.855  56.044  19.715  1.00  0.00    +0.025 C 
ATOM     16  C   UNL     1      52.693  57.120  21.286  1.00  0.00    +0.008 C 
ATOM     17  C   UNL     1      51.591  53.722  22.271  1.00  0.00    +0.010 C 
ENDBRANCH   3  10
ENDBRANCH   1   2
BRANCH   1  18
ATOM     18  C   UNL     1      50.191  49.409  19.377  1.00  0.00    +0.016 C 
BRANCH  18  19
ATOM     19  C   UNL     1      48.907  49.780  18.639  1.00  0.00    +0.053 C 
BRANCH  19  20
ATOM     20  C   UNL     1      48.113  48.514  18.333  1.00  0.00    +0.041 C 
ATOM     21  O   UNL     1      46.941  48.492  18.804  1.00  0.00    -0.550 OA
ATOM     22  O   UNL     1      48.722  47.661  17.629  1.00  0.00    -0.550 OA
ENDBRANCH  19  20
ENDBRANCH  18  19
ENDBRANCH   1  18
TORSDOF 5
ENDMDL
MODEL 5
REMARK VINA RESULT:    -6.951      1.955      3.510
REMARK INTER + INTRA:          -9.577
REMARK INTER:                  -9.090
REMARK INTRA:                  -0.487
REMARK UNBOUND:                -0.594
REMARK SMILES C[C@@H]1[C@@H](C)CCC[C@H]1NC(=O)NC(=O)CCCC(=O)[O-]
REMARK SMILES IDX 15 1 13 2 9 3 10 4 11 5 12 6 14 7 8 10 3 11 5 12 2 13 6 14
REMARK SMILES IDX 7 15 4 16 1 17 16 18 17 19 18 20 19 21 20 22
REMARK H PARENT 9 8 12 9
ROOT
ATOM      1  C   UNL     1      50.141  53.236  20.276  1.00  0.00    +0.101 C 
ENDROOT
BRANCH   1   2
ATOM      2  C   UNL     1      49.428  54.339  19.517  1.00  0.00    +0.227 C 
ATOM      3  N   UNL     1      49.741  52.075  17.450  1.00  0.00    -0.335 N 
ATOM      4  C   UNL     1      48.891  53.144  17.537  1.00  0.00    +0.321 C 
ATOM      5  O   UNL     1      47.770  53.170  17.039  1.00  0.00    -0.248 OA
ATOM      6  N   UNL     1      49.425  54.247  18.143  1.00  0.00    -0.278 N 
ATOM      7  O   UNL     1      48.844  55.280  20.052  1.00  0.00    -0.275 OA
ATOM      8  H   UNL     1      50.615  52.132  17.952  1.00  0.00    +0.165 HD
ATOM      9  H   UNL     1      48.848  55.033  17.861  1.00  0.00    +0.174 HD
BRANCH   3  10
ATOM     10  C   UNL     1      49.308  50.772  16.963  1.00  0.00    +0.087 C 
ATOM     11  C   UNL     1      47.622  48.873  17.491  1.00  0.00    -0.009 C 
ATOM     12  C   UNL     1      48.071  48.448  16.088  1.00  0.00    +0.004 C 
ATOM     13  C   UNL     1      48.501  50.024  18.055  1.00  0.00    +0.011 C 
ATOM     14  C   UNL     1      48.071  49.596  15.080  1.00  0.00    +0.002 C 
ATOM     15  C   UNL     1      48.488  50.937  15.679  1.00  0.00    +0.025 C 
ATOM     16  C   UNL     1      46.136  49.255  17.502  1.00  0.00    +0.008 C 
ATOM     17  C   UNL     1      49.459  49.483  19.127  1.00  0.00    +0.010 C 
ENDBRANCH   3  10
ENDBRANCH   1   2
BRANCH   1  18
ATOM     18  C   UNL     1      51.651  53.438  20.359  1.00  0.00    +0.016 C 
BRANCH  18  19
ATOM     19  C   UNL     1      52.376  52.131  20.047  1.00  0.00    +0.053 C 
BRANCH  19  20
ATOM     20  C   UNL     1      52.682  52.063  18.554  1.00  0.00    +0.041 C 
ATOM     21  O   UNL     1      52.674  50.902  18.060  1.00  0.00    -0.550 OA
ATOM     22  O   UNL     1      52.881  53.181  18.001  1.00  0.00    -0.550 OA
ENDBRANCH  19  20
ENDBRANCH  18  19
ENDBRANCH   1  18
TORSDOF 5
ENDMDL
