MODEL 1
REMARK VINA RESULT:    -8.127      0.000      0.000
REMARK INTER + INTRA:         -10.404
REMARK INTER:                 -10.265
REMARK INTRA:                  -0.139
REMARK UNBOUND:                -0.139
REMARK SMILES COc1ccc(NS(=O)(=O)c2ccccc2C#N)c(N)c1
REMARK SMILES IDX 3 1 4 2 5 3 6 4 19 5 21 6 2 7 1 8 20 9 7 12 8 14 9 15 10 16
REMARK SMILES IDX 11 17 12 18 16 19 13 20 15 21 17 22 14 23 18 24
REMARK H PARENT 20 10 20 11 7 13
ROOT
ATOM      1  C   UNL     1      48.018  50.460  17.272  1.00  0.00    +0.121 A 
ATOM      2  C   UNL     1      47.175  51.570  17.257  1.00  0.00    +0.049 A 
ATOM      3  C   UNL     1      47.679  52.849  17.493  1.00  0.00    +0.033 A 
ATOM      4  C   UNL     1      49.042  53.023  17.724  1.00  0.00    +0.072 A 
ATOM      5  C   UNL     1      49.924  51.926  17.664  1.00  0.00    +0.060 A 
ATOM      6  C   UNL     1      49.386  50.641  17.495  1.00  0.00    +0.074 A 
ENDROOT
BRANCH   1   7
ATOM      7  O   UNL     1      47.389  49.264  17.064  1.00  0.00    -0.497 OA
ATOM      8  C   UNL     1      46.924  48.566  18.213  1.00  0.00    +0.278 C 
ENDBRANCH   1   7
BRANCH   5   9
ATOM      9  N   UNL     1      51.295  52.061  17.981  1.00  0.00    -0.397 N 
ATOM     10  H   UNL     1      51.751  51.177  18.174  1.00  0.00    +0.156 HD
ATOM     11  H   UNL     1      51.461  52.718  18.739  1.00  0.00    +0.156 HD
ENDBRANCH   5   9
BRANCH   4  12
ATOM     12  N   UNL     1      49.537  54.309  18.097  1.00  0.00    -0.277 N 
ATOM     13  H   UNL     1      50.014  54.848  17.383  1.00  0.00    +0.180 HD
BRANCH  12  14
ATOM     14  S   UNL     1      50.309  54.484  19.589  1.00  0.00    +0.263 S 
ATOM     15  O   UNL     1      49.858  53.359  20.385  1.00  0.00    -0.201 OA
ATOM     16  O   UNL     1      51.720  54.705  19.382  1.00  0.00    -0.201 OA
BRANCH  14  17
ATOM     17  C   UNL     1      49.581  55.944  20.300  1.00  0.00    +0.105 A 
ATOM     18  C   UNL     1      48.347  56.365  19.772  1.00  0.00    +0.023 A 
ATOM     19  C   UNL     1      50.155  56.630  21.377  1.00  0.00    +0.073 A 
ATOM     20  C   UNL     1      47.700  57.483  20.295  1.00  0.00    +0.002 A 
ATOM     21  C   UNL     1      49.487  57.757  21.892  1.00  0.00    +0.021 A 
ATOM     22  C   UNL     1      51.398  56.276  22.002  1.00  0.00    +0.101 C 
ATOM     23  C   UNL     1      48.270  58.181  21.354  1.00  0.00    +0.001 A 
ATOM     24  N   UNL     1      52.397  56.070  22.556  1.00  0.00    -0.192 NA
ENDBRANCH  14  17
ENDBRANCH  12  14
ENDBRANCH   4  12
TORSDOF 5
ENDMDL
MODEL 2
REMARK VINA RESULT:    -7.925      1.451      2.116
REMARK INTER + INTRA:         -10.150
REMARK INTER:                 -10.243
REMARK INTRA:                   0.093
REMARK UNBOUND:                -0.139
REMARK SMILES COc1ccc(NS(=O)(=O)c2ccccc2C#N)c(N)c1
REMARK SMILES IDX 3 1 4 2 5 3 6 4 19 5 21 6 2 7 1 8 20 9 7 12 8 14 9 15 10 16
REMARK SMILES IDX 11 17 12 18 16 19 13 20 15 21 17 22 14 23 18 24
REMARK H PARENT 20 10 20 11 7 13
ROOT
ATOM      1  C   UNL     1      49.567  50.566  16.108  1.00  0.00    +0.121 A 
ATOM      2  C   UNL     1      50.314  50.779  17.266  1.00  0.00    +0.049 A 
ATOM      3  C   UNL     1      50.066  51.885  18.078  1.00  0.00    +0.033 A 
ATOM      4  C   UNL     1      49.049  52.775  17.742  1.00  0.00    +0.072 A 
ATOM      5  C   UNL     1      48.230  52.536  16.621  1.00  0.00    +0.060 A 
ATOM      6  C   UNL     1      48.541  51.457  15.780  1.00  0.00    +0.074 A 
ENDROOT
BRANCH   1   7
ATOM      7  O   UNL     1      49.939  49.466  15.385  1.00  0.00    -0.497 OA
ATOM      8  C   UNL     1      51.072  49.599  14.536  1.00  0.00    +0.278 C 
ENDBRANCH   1   7
BRANCH   5   9
ATOM      9  N   UNL     1      47.250  53.468  16.209  1.00  0.00    -0.397 N 
ATOM     10  H   UNL     1      47.643  54.302  15.787  1.00  0.00    +0.156 HD
ATOM     11  H   UNL     1      46.607  53.719  16.956  1.00  0.00    +0.156 HD
ENDBRANCH   5   9
BRANCH   4  12
ATOM     12  N   UNL     1      48.884  53.976  18.496  1.00  0.00    -0.277 N 
ATOM     13  H   UNL     1      48.546  54.794  17.999  1.00  0.00    +0.180 HD
BRANCH  12  14
ATOM     14  S   UNL     1      50.075  54.410  19.612  1.00  0.00    +0.263 S 
ATOM     15  O   UNL     1      50.015  53.395  20.646  1.00  0.00    -0.201 OA
ATOM     16  O   UNL     1      51.316  54.667  18.922  1.00  0.00    -0.201 OA
BRANCH  14  17
ATOM     17  C   UNL     1      49.478  55.921  20.338  1.00  0.00    +0.105 A 
ATOM     18  C   UNL     1      48.225  56.388  19.902  1.00  0.00    +0.023 A 
ATOM     19  C   UNL     1      50.173  56.606  21.342  1.00  0.00    +0.073 A 
ATOM     20  C   UNL     1      47.677  57.550  20.444  1.00  0.00    +0.002 A 
ATOM     21  C   UNL     1      49.604  57.777  21.877  1.00  0.00    +0.021 A 
ATOM     22  C   UNL     1      51.447  56.209  21.871  1.00  0.00    +0.101 C 
ATOM     23  C   UNL     1      48.367  58.247  21.430  1.00  0.00    +0.001 A 
ATOM     24  N   UNL     1      52.478  55.968  22.346  1.00  0.00    -0.192 NA
ENDBRANCH  14  17
ENDBRANCH  12  14
ENDBRANCH   4  12
TORSDOF 5
ENDMDL
MODEL 3
REMARK VINA RESULT:    -7.861      2.694      3.547
REMARK INTER + INTRA:         -10.068
REMARK INTER:                  -9.559
REMARK INTRA:                  -0.509
REMARK UNBOUND:                -0.139
REMARK SMILES COc1ccc(NS(=O)(=O)c2ccccc2C#N)c(N)c1
REMARK SMILES IDX 3 1 4 2 5 3 6 4 19 5 21 6 2 7 1 8 20 9 7 12 8 14 9 15 10 16
REMARK SMILES IDX 11 17 12 18 16 19 13 20 15 21 17 22 14 23 18 24
REMARK H PARENT 20 10 20 11 7 13
ROOT
ATOM      1  C   UNL     1      46.374  48.408  16.663  1.00  0.00    +0.121 A 
ATOM      2  C   UNL     1      46.252  49.680  17.223  1.00  0.00    +0.049 A 
ATOM      3  C   UNL     1      47.309  50.587  17.161  1.00  0.00    +0.033 A 
ATOM      4  C   UNL     1      48.492  50.229  16.518  1.00  0.00    +0.072 A 
ATOM      5  C   UNL     1      48.608  48.980  15.877  1.00  0.00    +0.060 A 
ATOM      6  C   UNL     1      47.560  48.057  16.010  1.00  0.00    +0.074 A 
ENDROOT
BRANCH   1   7
ATOM      7  O   UNL     1      45.279  47.606  16.827  1.00  0.00    -0.497 OA
ATOM      8  C   UNL     1      44.518  47.780  18.015  1.00  0.00    +0.278 C 
ENDBRANCH   1   7
BRANCH   5   9
ATOM      9  N   UNL     1      49.825  48.559  15.294  1.00  0.00    -0.397 N 
ATOM     10  H   UNL     1      50.242  49.257  14.689  1.00  0.00    +0.156 HD
ATOM     11  H   UNL     1      49.740  47.672  14.804  1.00  0.00    +0.156 HD
ENDBRANCH   5   9
BRANCH   4  12
ATOM     12  N   UNL     1      49.619  51.104  16.572  1.00  0.00    -0.277 N 
ATOM     13  H   UNL     1      50.202  51.162  15.744  1.00  0.00    +0.180 HD
BRANCH  12  14
ATOM     14  S   UNL     1      50.568  51.126  17.969  1.00  0.00    +0.263 S 
ATOM     15  O   UNL     1      50.087  50.019  18.773  1.00  0.00    -0.201 OA
ATOM     16  O   UNL     1      51.962  51.206  17.607  1.00  0.00    -0.201 OA
BRANCH  14  17
ATOM     17  C   UNL     1      50.089  52.620  18.810  1.00  0.00    +0.105 A 
ATOM     18  C   UNL     1      49.212  53.484  18.129  1.00  0.00    +0.023 A 
ATOM     19  C   UNL     1      50.502  52.922  20.114  1.00  0.00    +0.073 A 
ATOM     20  C   UNL     1      48.769  54.660  18.733  1.00  0.00    +0.002 A 
ATOM     21  C   UNL     1      50.045  54.114  20.707  1.00  0.00    +0.021 A 
ATOM     22  C   UNL     1      51.379  52.104  20.903  1.00  0.00    +0.101 C 
ATOM     23  C   UNL     1      49.187  54.977  20.021  1.00  0.00    +0.001 A 
ATOM     24  N   UNL     1      52.089  51.512  21.604  1.00  0.00    -0.192 NA
ENDBRANCH  14  17
ENDBRANCH  12  14
ENDBRANCH   4  12
TORSDOF 5
ENDMDL
MODEL 4
REMARK VINA RESULT:    -7.813      2.335      6.407
REMARK INTER + INTRA:         -10.008
REMARK INTER:                  -9.549
REMARK INTRA:                  -0.459
REMARK UNBOUND:                -0.139
REMARK SMILES COc1ccc(NS(=O)(=O)c2ccccc2C#N)c(N)c1
REMARK SMILES IDX 3 1 4 2 5 3 6 4 19 5 21 6 2 7 1 8 20 9 7 12 8 14 9 15 10 16
REMARK SMILES IDX 11 17 12 18 16 19 13 20 15 21 17 22 14 23 18 24
REMARK H PARENT 20 10 20 11 7 13
ROOT
ATOM      1  C   UNL     1      49.355  56.339  20.617  1.00  0.00    +0.121 A 
ATOM      2  C   UNL     1      48.402  55.575  19.944  1.00  0.00    +0.049 A 
ATOM      3  C   UNL     1      48.790  54.517  19.123  1.00  0.00    +0.033 A 
ATOM      4  C   UNL     1      50.141  54.204  18.990  1.00  0.00    +0.072 A 
ATOM      5  C   UNL     1      51.115  54.912  19.723  1.00  0.00    +0.060 A 
ATOM      6  C   UNL     1      50.709  56.016  20.487  1.00  0.00    +0.074 A 
ENDROOT
BRANCH   1   7
ATOM      7  O   UNL     1      48.841  57.369  21.356  1.00  0.00    -0.497 OA
ATOM      8  C   UNL     1      47.849  58.180  20.739  1.00  0.00    +0.278 C 
ENDBRANCH   1   7
BRANCH   5   9
ATOM      9  N   UNL     1      52.496  54.673  19.539  1.00  0.00    -0.397 N 
ATOM     10  H   UNL     1      52.697  53.754  19.162  1.00  0.00    +0.156 HD
ATOM     11  H   UNL     1      53.039  54.835  20.383  1.00  0.00    +0.156 HD
ENDBRANCH   5   9
BRANCH   4  12
ATOM     12  N   UNL     1      50.548  53.211  18.049  1.00  0.00    -0.277 N 
ATOM     13  H   UNL     1      50.023  53.149  17.183  1.00  0.00    +0.180 HD
BRANCH  12  14
ATOM     14  S   UNL     1      50.949  51.670  18.612  1.00  0.00    +0.263 S 
ATOM     15  O   UNL     1      51.925  51.162  17.667  1.00  0.00    -0.201 OA
ATOM     16  O   UNL     1      51.269  51.735  20.017  1.00  0.00    -0.201 OA
BRANCH  14  17
ATOM     17  C   UNL     1      49.466  50.712  18.386  1.00  0.00    +0.105 A 
ATOM     18  C   UNL     1      48.507  51.220  17.491  1.00  0.00    +0.023 A 
ATOM     19  C   UNL     1      49.260  49.476  19.011  1.00  0.00    +0.073 A 
ATOM     20  C   UNL     1      47.332  50.513  17.239  1.00  0.00    +0.002 A 
ATOM     21  C   UNL     1      48.067  48.777  18.745  1.00  0.00    +0.021 A 
ATOM     22  C   UNL     1      50.178  48.859  19.925  1.00  0.00    +0.101 C 
ATOM     23  C   UNL     1      47.110  49.292  17.868  1.00  0.00    +0.001 A 
ATOM     24  N   UNL     1      50.855  48.296  20.681  1.00  0.00    -0.192 NA
ENDBRANCH  14  17
ENDBRANCH  12  14
ENDBRANCH   4  12
TORSDOF 5
ENDMDL
MODEL 5
REMARK VINA RESULT:    -7.696      2.696      6.834
REMARK INTER + INTRA:          -9.860
REMARK INTER:                  -9.898
REMARK INTRA:                   0.038
REMARK UNBOUND:                -0.139
REMARK SMILES COc1ccc(NS(=O)(=O)c2ccccc2C#N)c(N)c1
REMARK SMILES IDX 3 1 4 2 5 3 6 4 19 5 21 6 2 7 1 8 20 9 7 12 8 14 9 15 10 16
REMARK SMILES IDX 11 17 12 18 16 19 13 20 15 21 17 22 14 23 18 24
REMARK H PARENT 20 10 20 11 7 13
ROOT
ATOM      1  C   UNL     1      51.862  55.100  20.691  1.00  0.00    +0.121 A 
ATOM      2  C   UNL     1      50.480  54.938  20.792  1.00  0.00    +0.049 A 
ATOM      3  C   UNL     1      49.809  54.036  19.967  1.00  0.00    +0.033 A 
ATOM      4  C   UNL     1      50.526  53.273  19.048  1.00  0.00    +0.072 A 
ATOM      5  C   UNL     1      51.931  53.363  18.985  1.00  0.00    +0.060 A 
ATOM      6  C   UNL     1      52.578  54.326  19.774  1.00  0.00    +0.074 A 
ENDROOT
BRANCH   1   7
ATOM      7  O   UNL     1      52.387  56.043  21.531  1.00  0.00    -0.497 OA
ATOM      8  C   UNL     1      53.116  57.110  20.936  1.00  0.00    +0.278 C 
ENDBRANCH   1   7
BRANCH   5   9
ATOM      9  N   UNL     1      52.673  52.667  18.003  1.00  0.00    -0.397 N 
ATOM     10  H   UNL     1      53.031  53.269  17.270  1.00  0.00    +0.156 HD
ATOM     11  H   UNL     1      52.159  51.887  17.601  1.00  0.00    +0.156 HD
ENDBRANCH   5   9
BRANCH   4  12
ATOM     12  N   UNL     1      49.827  52.451  18.113  1.00  0.00    -0.277 N 
ATOM     13  H   UNL     1      48.855  52.677  17.932  1.00  0.00    +0.180 HD
BRANCH  12  14
ATOM     14  S   UNL     1      50.046  50.777  18.176  1.00  0.00    +0.263 S 
ATOM     15  O   UNL     1      50.777  50.444  16.969  1.00  0.00    -0.201 OA
ATOM     16  O   UNL     1      50.573  50.405  19.467  1.00  0.00    -0.201 OA
BRANCH  14  17
ATOM     17  C   UNL     1      48.408  50.106  17.991  1.00  0.00    +0.105 A 
ATOM     18  C   UNL     1      48.154  48.864  18.599  1.00  0.00    +0.023 A 
ATOM     19  C   UNL     1      47.381  50.787  17.326  1.00  0.00    +0.073 A 
ATOM     20  C   UNL     1      46.887  48.286  18.523  1.00  0.00    +0.002 A 
ATOM     21  C   UNL     1      46.109  50.188  17.259  1.00  0.00    +0.021 A 
ATOM     22  C   UNL     1      47.527  52.064  16.687  1.00  0.00    +0.101 C 
ATOM     23  C   UNL     1      45.865  48.947  17.850  1.00  0.00    +0.001 A 
ATOM     24  N   UNL     1      47.558  53.085  16.137  1.00  0.00    -0.192 NA
ENDBRANCH  14  17
ENDBRANCH  12  14
ENDBRANCH   4  12
TORSDOF 5
ENDMDL
