MODEL 1
REMARK VINA RESULT:    -8.759      0.000      0.000
REMARK INTER + INTRA:         -15.160
REMARK INTER:                 -13.879
REMARK INTRA:                  -1.281
REMARK UNBOUND:                -1.281
REMARK SMILES COCCCNC(=O)Nc1cc(C(=O)NCc2ccc(C(C)C)cc2)ccc1N1CCCC1
REMARK SMILES IDX 12 1 26 2 27 3 28 4 10 5 11 6 13 7 15 8 14 9 16 11 17 12
REMARK SMILES IDX 20 13 19 14 24 15 18 16 25 17 21 18 22 19 23 20 9 21 7 22
REMARK SMILES IDX 8 23 6 24 5 27 4 28 3 29 2 30 1 31 29 32 30 33 33 34 31 35
REMARK SMILES IDX 32 36
REMARK H PARENT 15 10 9 25 6 26
ROOT
ATOM      1  C   UNL     1      50.870  51.969  20.307  1.00  0.00    +0.042 A 
ATOM      2  C   UNL     1      51.752  52.483  21.260  1.00  0.00    +0.016 A 
ATOM      3  C   UNL     1      51.977  53.859  21.333  1.00  0.00    +0.029 A 
ATOM      4  C   UNL     1      51.347  54.755  20.455  1.00  0.00    +0.061 A 
ATOM      5  C   UNL     1      50.504  54.225  19.448  1.00  0.00    +0.067 A 
ATOM      6  C   UNL     1      50.266  52.845  19.393  1.00  0.00    +0.042 A 
ENDROOT
BRANCH   1   7
ATOM      7  C   UNL     1      50.536  50.514  20.220  1.00  0.00    +0.251 C 
ATOM      8  N   UNL     1      49.768  50.108  19.148  1.00  0.00    -0.348 N 
ATOM      9  O   UNL     1      50.979  49.726  21.051  1.00  0.00    -0.269 OA
ATOM     10  H   UNL     1      49.572  50.746  18.392  1.00  0.00    +0.164 HD
BRANCH   8  11
ATOM     11  C   UNL     1      49.486  48.711  18.898  1.00  0.00    +0.152 C 
BRANCH  11  12
ATOM     12  C   UNL     1      48.360  48.575  17.905  1.00  0.00    -0.029 A 
ATOM     13  C   UNL     1      46.224  48.296  16.074  1.00  0.00    -0.045 A 
ATOM     14  C   UNL     1      46.005  48.817  17.357  1.00  0.00    +0.004 A 
ATOM     15  C   UNL     1      47.526  47.909  15.724  1.00  0.00    +0.004 A 
ATOM     16  C   UNL     1      47.060  48.957  18.261  1.00  0.00    +0.006 A 
ATOM     17  C   UNL     1      48.582  48.046  16.630  1.00  0.00    +0.006 A 
BRANCH  13  18
ATOM     18  C   UNL     1      45.095  48.135  15.073  1.00  0.00    +0.013 C 
ATOM     19  C   UNL     1      44.104  47.046  15.493  1.00  0.00    +0.012 C 
ATOM     20  C   UNL     1      45.637  47.863  13.668  1.00  0.00    +0.012 C 
ENDBRANCH  13  18
ENDBRANCH  11  12
ENDBRANCH   8  11
ENDBRANCH   1   7
BRANCH   5  21
ATOM     21  N   UNL     1      49.910  55.128  18.539  1.00  0.00    -0.306 N 
ATOM     22  C   UNL     1      48.814  55.937  18.733  1.00  0.00    +0.319 C 
ATOM     23  O   UNL     1      48.087  55.969  19.713  1.00  0.00    -0.249 OA
ATOM     24  N   UNL     1      48.615  56.740  17.628  1.00  0.00    -0.338 N 
ATOM     25  H   UNL     1      50.166  54.986  17.577  1.00  0.00    +0.171 HD
ATOM     26  H   UNL     1      49.443  56.984  17.106  1.00  0.00    +0.165 HD
BRANCH  24  27
ATOM     27  C   UNL     1      47.540  57.711  17.584  1.00  0.00    +0.120 C 
BRANCH  27  28
ATOM     28  C   UNL     1      47.034  58.025  16.176  1.00  0.00    +0.050 C 
BRANCH  28  29
ATOM     29  C   UNL     1      47.379  56.963  15.139  1.00  0.00    +0.161 C 
BRANCH  29  30
ATOM     30  O   UNL     1      47.351  57.535  13.831  1.00  0.00    -0.385 OA
ATOM     31  C   UNL     1      46.048  57.476  13.267  1.00  0.00    +0.194 C 
ENDBRANCH  29  30
ENDBRANCH  28  29
ENDBRANCH  27  28
ENDBRANCH  24  27
ENDBRANCH   5  21
BRANCH   4  32
ATOM     32  N   UNL     1      51.622  56.106  20.642  1.00  0.00    -0.370 N 
ATOM     33  C   UNL     1      52.965  56.616  20.361  1.00  0.00    +0.116 C 
ATOM     34  C   UNL     1      51.019  56.782  21.793  1.00  0.00    +0.116 C 
ATOM     35  C   UNL     1      53.222  57.638  21.469  1.00  0.00    +0.023 C 
ATOM     36  C   UNL     1      51.824  58.075  21.887  1.00  0.00    +0.023 C 
ENDBRANCH   4  32
TORSDOF 10
ENDMDL
MODEL 2
REMARK VINA RESULT:    -8.699      1.714      2.231
REMARK INTER + INTRA:         -15.066
REMARK INTER:                 -13.826
REMARK INTRA:                  -1.240
REMARK UNBOUND:                -1.281
REMARK SMILES COCCCNC(=O)Nc1cc(C(=O)NCc2ccc(C(C)C)cc2)ccc1N1CCCC1
REMARK SMILES IDX 12 1 26 2 27 3 28 4 10 5 11 6 13 7 15 8 14 9 16 11 17 12
REMARK SMILES IDX 20 13 19 14 24 15 18 16 25 17 21 18 22 19 23 20 9 21 7 22
REMARK SMILES IDX 8 23 6 24 5 27 4 28 3 29 2 30 1 31 29 32 30 33 33 34 31 35
REMARK SMILES IDX 32 36
REMARK H PARENT 15 10 9 25 6 26
ROOT
ATOM      1  C   UNL     1      50.129  52.555  18.976  1.00  0.00    +0.042 A 
ATOM      2  C   UNL     1      50.508  52.988  20.248  1.00  0.00    +0.016 A 
ATOM      3  C   UNL     1      50.307  54.320  20.620  1.00  0.00    +0.029 A 
ATOM      4  C   UNL     1      49.743  55.253  19.737  1.00  0.00    +0.061 A 
ATOM      5  C   UNL     1      49.420  54.825  18.426  1.00  0.00    +0.067 A 
ATOM      6  C   UNL     1      49.605  53.484  18.065  1.00  0.00    +0.042 A 
ENDROOT
BRANCH   1   7
ATOM      7  C   UNL     1      50.256  51.130  18.540  1.00  0.00    +0.251 C 
ATOM      8  N   UNL     1      49.426  50.210  19.148  1.00  0.00    -0.348 N 
ATOM      9  O   UNL     1      51.035  50.823  17.642  1.00  0.00    -0.269 OA
ATOM     10  H   UNL     1      48.677  50.518  19.749  1.00  0.00    +0.164 HD
BRANCH   8  11
ATOM     11  C   UNL     1      49.377  48.828  18.721  1.00  0.00    +0.152 C 
BRANCH  11  12
ATOM     12  C   UNL     1      48.253  48.625  17.738  1.00  0.00    -0.029 A 
ATOM     13  C   UNL     1      46.121  48.221  15.926  1.00  0.00    -0.045 A 
ATOM     14  C   UNL     1      45.895  48.806  17.179  1.00  0.00    +0.004 A 
ATOM     15  C   UNL     1      47.428  47.833  15.596  1.00  0.00    +0.004 A 
ATOM     16  C   UNL     1      46.949  49.008  18.074  1.00  0.00    +0.006 A 
ATOM     17  C   UNL     1      48.482  48.031  16.493  1.00  0.00    +0.006 A 
BRANCH  13  18
ATOM     18  C   UNL     1      44.994  47.992  14.936  1.00  0.00    +0.013 C 
ATOM     19  C   UNL     1      44.024  46.906  15.409  1.00  0.00    +0.012 C 
ATOM     20  C   UNL     1      45.539  47.665  13.544  1.00  0.00    +0.012 C 
ENDBRANCH  13  18
ENDBRANCH  11  12
ENDBRANCH   8  11
ENDBRANCH   1   7
BRANCH   5  21
ATOM     21  N   UNL     1      48.896  55.780  17.527  1.00  0.00    -0.306 N 
ATOM     22  C   UNL     1      48.094  55.569  16.430  1.00  0.00    +0.319 C 
ATOM     23  O   UNL     1      47.745  54.494  15.969  1.00  0.00    -0.249 OA
ATOM     24  N   UNL     1      47.721  56.777  15.875  1.00  0.00    -0.338 N 
ATOM     25  H   UNL     1      49.353  56.677  17.551  1.00  0.00    +0.171 HD
ATOM     26  H   UNL     1      47.653  57.553  16.514  1.00  0.00    +0.165 HD
BRANCH  24  27
ATOM     27  C   UNL     1      46.848  56.840  14.720  1.00  0.00    +0.120 C 
BRANCH  27  28
ATOM     28  C   UNL     1      45.480  57.463  15.000  1.00  0.00    +0.050 C 
BRANCH  28  29
ATOM     29  C   UNL     1      45.537  58.922  15.437  1.00  0.00    +0.161 C 
BRANCH  29  30
ATOM     30  O   UNL     1      46.164  59.021  16.715  1.00  0.00    -0.385 OA
ATOM     31  C   UNL     1      46.007  60.320  17.270  1.00  0.00    +0.194 C 
ENDBRANCH  29  30
ENDBRANCH  28  29
ENDBRANCH  27  28
ENDBRANCH  24  27
ENDBRANCH   5  21
BRANCH   4  32
ATOM     32  N   UNL     1      49.561  56.543  20.226  1.00  0.00    -0.370 N 
ATOM     33  C   UNL     1      50.574  57.133  21.104  1.00  0.00    +0.116 C 
ATOM     34  C   UNL     1      48.210  56.950  20.616  1.00  0.00    +0.116 C 
ATOM     35  C   UNL     1      49.769  57.909  22.146  1.00  0.00    +0.023 C 
ATOM     36  C   UNL     1      48.458  58.215  21.433  1.00  0.00    +0.023 C 
ENDBRANCH   4  32
TORSDOF 10
ENDMDL
MODEL 3
REMARK VINA RESULT:    -8.607      2.458      4.778
REMARK INTER + INTRA:         -14.920
REMARK INTER:                 -13.527
REMARK INTRA:                  -1.393
REMARK UNBOUND:                -1.281
REMARK SMILES COCCCNC(=O)Nc1cc(C(=O)NCc2ccc(C(C)C)cc2)ccc1N1CCCC1
REMARK SMILES IDX 12 1 26 2 27 3 28 4 10 5 11 6 13 7 15 8 14 9 16 11 17 12
REMARK SMILES IDX 20 13 19 14 24 15 18 16 25 17 21 18 22 19 23 20 9 21 7 22
REMARK SMILES IDX 8 23 6 24 5 27 4 28 3 29 2 30 1 31 29 32 30 33 33 34 31 35
REMARK SMILES IDX 32 36
REMARK H PARENT 15 10 9 25 6 26
ROOT
ATOM      1  C   UNL     1      48.804  56.108  19.193  1.00  0.00    +0.042 A 
ATOM      2  C   UNL     1      48.686  57.070  20.199  1.00  0.00    +0.016 A 
ATOM      3  C   UNL     1      48.075  58.295  19.923  1.00  0.00    +0.029 A 
ATOM      4  C   UNL     1      47.584  58.602  18.645  1.00  0.00    +0.061 A 
ATOM      5  C   UNL     1      47.764  57.650  17.612  1.00  0.00    +0.067 A 
ATOM      6  C   UNL     1      48.359  56.414  17.899  1.00  0.00    +0.042 A 
ENDROOT
BRANCH   1   7
ATOM      7  C   UNL     1      49.387  54.753  19.439  1.00  0.00    +0.251 C 
ATOM      8  N   UNL     1      49.636  53.965  18.334  1.00  0.00    -0.348 N 
ATOM      9  O   UNL     1      49.669  54.398  20.580  1.00  0.00    -0.269 OA
ATOM     10  H   UNL     1      49.561  54.352  17.406  1.00  0.00    +0.164 HD
BRANCH   8  11
ATOM     11  C   UNL     1      50.309  52.689  18.444  1.00  0.00    +0.152 C 
BRANCH  11  12
ATOM     12  C   UNL     1      49.332  51.563  18.219  1.00  0.00    -0.029 A 
ATOM     13  C   UNL     1      47.533  49.426  17.780  1.00  0.00    -0.045 A 
ATOM     14  C   UNL     1      48.701  49.237  18.532  1.00  0.00    +0.004 A 
ATOM     15  C   UNL     1      47.283  50.697  17.244  1.00  0.00    +0.004 A 
ATOM     16  C   UNL     1      49.589  50.293  18.751  1.00  0.00    +0.006 A 
ATOM     17  C   UNL     1      48.173  51.754  17.460  1.00  0.00    +0.006 A 
BRANCH  13  18
ATOM     18  C   UNL     1      46.552  48.296  17.530  1.00  0.00    +0.013 C 
ATOM     19  C   UNL     1      45.448  48.700  16.550  1.00  0.00    +0.012 C 
ATOM     20  C   UNL     1      45.954  47.782  18.842  1.00  0.00    +0.012 C 
ENDBRANCH  13  18
ENDBRANCH  11  12
ENDBRANCH   8  11
ENDBRANCH   1   7
BRANCH   5  21
ATOM     21  N   UNL     1      47.309  57.984  16.318  1.00  0.00    -0.306 N 
ATOM     22  C   UNL     1      47.424  57.253  15.158  1.00  0.00    +0.319 C 
ATOM     23  O   UNL     1      48.022  56.199  15.009  1.00  0.00    -0.249 OA
ATOM     24  N   UNL     1      46.761  57.888  14.128  1.00  0.00    -0.338 N 
ATOM     25  H   UNL     1      47.095  58.957  16.184  1.00  0.00    +0.171 HD
ATOM     26  H   UNL     1      45.966  58.448  14.395  1.00  0.00    +0.165 HD
BRANCH  24  27
ATOM     27  C   UNL     1      46.702  57.312  12.799  1.00  0.00    +0.120 C 
BRANCH  27  28
ATOM     28  C   UNL     1      45.310  57.332  12.167  1.00  0.00    +0.050 C 
BRANCH  28  29
ATOM     29  C   UNL     1      44.339  56.320  12.765  1.00  0.00    +0.161 C 
BRANCH  29  30
ATOM     30  O   UNL     1      44.024  56.687  14.108  1.00  0.00    -0.385 OA
ATOM     31  C   UNL     1      43.079  57.748  14.147  1.00  0.00    +0.194 C 
ENDBRANCH  29  30
ENDBRANCH  28  29
ENDBRANCH  27  28
ENDBRANCH  24  27
ENDBRANCH   5  21
BRANCH   4  32
ATOM     32  N   UNL     1      46.966  59.840  18.496  1.00  0.00    -0.370 N 
ATOM     33  C   UNL     1      47.786  61.049  18.395  1.00  0.00    +0.116 C 
ATOM     34  C   UNL     1      45.729  60.090  19.238  1.00  0.00    +0.116 C 
ATOM     35  C   UNL     1      47.014  62.099  19.193  1.00  0.00    +0.023 C 
ATOM     36  C   UNL     1      45.575  61.605  19.140  1.00  0.00    +0.023 C 
ENDBRANCH   4  32
TORSDOF 10
ENDMDL
MODEL 4
REMARK VINA RESULT:    -8.313      2.562      7.995
REMARK INTER + INTRA:         -14.453
REMARK INTER:                 -12.966
REMARK INTRA:                  -1.487
REMARK UNBOUND:                -1.281
REMARK SMILES COCCCNC(=O)Nc1cc(C(=O)NCc2ccc(C(C)C)cc2)ccc1N1CCCC1
REMARK SMILES IDX 12 1 26 2 27 3 28 4 10 5 11 6 13 7 15 8 14 9 16 11 17 12
REMARK SMILES IDX 20 13 19 14 24 15 18 16 25 17 21 18 22 19 23 20 9 21 7 22
REMARK SMILES IDX 8 23 6 24 5 27 4 28 3 29 2 30 1 31 29 32 30 33 33 34 31 35
REMARK SMILES IDX 32 36
REMARK H PARENT 15 10 9 25 6 26
ROOT
ATOM      1  C   UNL     1      49.123  54.711  19.181  1.00  0.00    +0.042 A 
ATOM      2  C   UNL     1      49.825  54.241  20.292  1.00  0.00    +0.016 A 
ATOM      3  C   UNL     1      50.444  52.989  20.248  1.00  0.00    +0.029 A 
ATOM      4  C   UNL     1      50.368  52.171  19.111  1.00  0.00    +0.061 A 
ATOM      5  C   UNL     1      49.600  52.622  18.011  1.00  0.00    +0.067 A 
ATOM      6  C   UNL     1      48.998  53.887  18.052  1.00  0.00    +0.042 A 
ENDROOT
BRANCH   1   7
ATOM      7  C   UNL     1      48.494  56.067  19.140  1.00  0.00    +0.251 C 
ATOM      8  N   UNL     1      48.327  56.646  17.898  1.00  0.00    -0.348 N 
ATOM      9  O   UNL     1      48.106  56.602  20.175  1.00  0.00    -0.269 OA
ATOM     10  H   UNL     1      48.490  56.109  17.060  1.00  0.00    +0.164 HD
BRANCH   8  11
ATOM     11  C   UNL     1      47.622  57.898  17.730  1.00  0.00    +0.152 C 
BRANCH  11  12
ATOM     12  C   UNL     1      46.990  57.962  16.363  1.00  0.00    -0.029 A 
ATOM     13  C   UNL     1      45.847  58.087  13.780  1.00  0.00    -0.045 A 
ATOM     14  C   UNL     1      46.848  57.151  14.077  1.00  0.00    +0.004 A 
ATOM     15  C   UNL     1      45.434  58.965  14.792  1.00  0.00    +0.004 A 
ATOM     16  C   UNL     1      47.412  57.088  15.353  1.00  0.00    +0.006 A 
ATOM     17  C   UNL     1      46.000  58.904  16.068  1.00  0.00    +0.006 A 
BRANCH  13  18
ATOM     18  C   UNL     1      45.218  58.175  12.401  1.00  0.00    +0.013 C 
ATOM     19  C   UNL     1      46.064  57.470  11.338  1.00  0.00    +0.012 C 
ATOM     20  C   UNL     1      44.951  59.629  12.008  1.00  0.00    +0.012 C 
ENDBRANCH  13  18
ENDBRANCH  11  12
ENDBRANCH   8  11
ENDBRANCH   1   7
BRANCH   5  21
ATOM     21  N   UNL     1      49.489  51.773  16.888  1.00  0.00    -0.306 N 
ATOM     22  C   UNL     1      48.413  51.012  16.497  1.00  0.00    +0.319 C 
ATOM     23  O   UNL     1      47.362  50.859  17.100  1.00  0.00    -0.249 OA
ATOM     24  N   UNL     1      48.677  50.399  15.288  1.00  0.00    -0.338 N 
ATOM     25  H   UNL     1      50.366  51.513  16.467  1.00  0.00    +0.171 HD
ATOM     26  H   UNL     1      49.304  50.894  14.672  1.00  0.00    +0.165 HD
BRANCH  24  27
ATOM     27  C   UNL     1      47.692  49.560  14.636  1.00  0.00    +0.120 C 
BRANCH  27  28
ATOM     28  C   UNL     1      47.578  48.152  15.222  1.00  0.00    +0.050 C 
BRANCH  28  29
ATOM     29  C   UNL     1      46.169  47.572  15.183  1.00  0.00    +0.161 C 
BRANCH  29  30
ATOM     30  O   UNL     1      45.235  48.534  15.671  1.00  0.00    -0.385 OA
ATOM     31  C   UNL     1      44.932  48.314  17.042  1.00  0.00    +0.194 C 
ENDBRANCH  29  30
ENDBRANCH  28  29
ENDBRANCH  27  28
ENDBRANCH  24  27
ENDBRANCH   5  21
BRANCH   4  32
ATOM     32  N   UNL     1      51.051  50.959  19.170  1.00  0.00    -0.370 N 
ATOM     33  C   UNL     1      50.329  49.740  19.540  1.00  0.00    +0.116 C 
ATOM     34  C   UNL     1      52.415  50.959  19.701  1.00  0.00    +0.116 C 
ATOM     35  C   UNL     1      51.314  48.969  20.419  1.00  0.00    +0.023 C 
ATOM     36  C   UNL     1      52.676  49.480  19.967  1.00  0.00    +0.023 C 
ENDBRANCH   4  32
TORSDOF 10
ENDMDL
MODEL 5
REMARK VINA RESULT:    -8.205      3.005      9.214
REMARK INTER + INTRA:         -14.282
REMARK INTER:                 -12.650
REMARK INTRA:                  -1.632
REMARK UNBOUND:                -1.281
REMARK SMILES COCCCNC(=O)Nc1cc(C(=O)NCc2ccc(C(C)C)cc2)ccc1N1CCCC1
REMARK SMILES IDX 12 1 26 2 27 3 28 4 10 5 11 6 13 7 15 8 14 9 16 11 17 12
REMARK SMILES IDX 20 13 19 14 24 15 18 16 25 17 21 18 22 19 23 20 9 21 7 22
REMARK SMILES IDX 8 23 6 24 5 27 4 28 3 29 2 30 1 31 29 32 30 33 33 34 31 35
REMARK SMILES IDX 32 36
REMARK H PARENT 15 10 9 25 6 26
ROOT
ATOM      1  C   UNL     1      48.620  54.110  17.323  1.00  0.00    +0.042 A 
ATOM      2  C   UNL     1      49.733  54.426  18.104  1.00  0.00    +0.016 A 
ATOM      3  C   UNL     1      50.416  53.417  18.788  1.00  0.00    +0.029 A 
ATOM      4  C   UNL     1      50.003  52.077  18.725  1.00  0.00    +0.061 A 
ATOM      5  C   UNL     1      48.835  51.770  17.985  1.00  0.00    +0.067 A 
ATOM      6  C   UNL     1      48.166  52.783  17.285  1.00  0.00    +0.042 A 
ENDROOT
BRANCH   1   7
ATOM      7  C   UNL     1      47.886  55.132  16.515  1.00  0.00    +0.251 C 
ATOM      8  N   UNL     1      48.065  56.456  16.865  1.00  0.00    -0.348 N 
ATOM      9  O   UNL     1      47.201  54.789  15.556  1.00  0.00    -0.269 OA
ATOM     10  H   UNL     1      48.769  56.714  17.538  1.00  0.00    +0.164 HD
BRANCH   8  11
ATOM     11  C   UNL     1      47.502  57.533  16.080  1.00  0.00    +0.152 C 
BRANCH  11  12
ATOM     12  C   UNL     1      46.965  58.613  16.985  1.00  0.00    -0.029 A 
ATOM     13  C   UNL     1      45.968  60.669  18.650  1.00  0.00    -0.045 A 
ATOM     14  C   UNL     1      45.458  60.482  17.358  1.00  0.00    +0.004 A 
ATOM     15  C   UNL     1      46.990  59.817  19.094  1.00  0.00    +0.004 A 
ATOM     16  C   UNL     1      45.949  59.465  16.535  1.00  0.00    +0.006 A 
ATOM     17  C   UNL     1      47.484  58.801  18.270  1.00  0.00    +0.006 A 
BRANCH  13  18
ATOM     18  C   UNL     1      45.450  61.765  19.563  1.00  0.00    +0.013 C 
ATOM     19  C   UNL     1      44.049  62.232  19.162  1.00  0.00    +0.012 C 
ATOM     20  C   UNL     1      46.423  62.945  19.616  1.00  0.00    +0.012 C 
ENDBRANCH  13  18
ENDBRANCH  11  12
ENDBRANCH   8  11
ENDBRANCH   1   7
BRANCH   5  21
ATOM     21  N   UNL     1      48.398  50.427  17.965  1.00  0.00    -0.306 N 
ATOM     22  C   UNL     1      48.529  49.502  16.955  1.00  0.00    +0.319 C 
ATOM     23  O   UNL     1      48.982  49.692  15.837  1.00  0.00    -0.249 OA
ATOM     24  N   UNL     1      48.054  48.275  17.370  1.00  0.00    -0.338 N 
ATOM     25  H   UNL     1      47.710  50.197  18.661  1.00  0.00    +0.171 HD
ATOM     26  H   UNL     1      48.130  48.084  18.357  1.00  0.00    +0.165 HD
BRANCH  24  27
ATOM     27  C   UNL     1      48.103  47.113  16.503  1.00  0.00    +0.120 C 
BRANCH  27  28
ATOM     28  C   UNL     1      46.762  46.400  16.333  1.00  0.00    +0.050 C 
BRANCH  28  29
ATOM     29  C   UNL     1      45.771  47.138  15.440  1.00  0.00    +0.161 C 
BRANCH  29  30
ATOM     30  O   UNL     1      45.265  48.285  16.122  1.00  0.00    -0.385 OA
ATOM     31  C   UNL     1      44.562  47.919  17.301  1.00  0.00    +0.194 C 
ENDBRANCH  29  30
ENDBRANCH  28  29
ENDBRANCH  27  28
ENDBRANCH  24  27
ENDBRANCH   5  21
BRANCH   4  32
ATOM     32  N   UNL     1      50.778  51.154  19.420  1.00  0.00    -0.370 N 
ATOM     33  C   UNL     1      50.972  51.312  20.863  1.00  0.00    +0.116 C 
ATOM     34  C   UNL     1      51.982  50.633  18.770  1.00  0.00    +0.116 C 
ATOM     35  C   UNL     1      52.430  50.916  21.095  1.00  0.00    +0.023 C 
ATOM     36  C   UNL     1      52.742  49.991  19.926  1.00  0.00    +0.023 C 
ENDBRANCH   4  32
TORSDOF 10
ENDMDL
