MODEL 1
REMARK VINA RESULT:    -8.763      0.000      0.000
REMARK INTER + INTRA:         -14.063
REMARK INTER:                 -13.117
REMARK INTRA:                  -0.946
REMARK UNBOUND:                -0.946
REMARK SMILES CSc1ccccc1NC(=O)CSc1nnc(N/N=C/c2ccc(C)o2)n1N
REMARK SMILES IDX 13 1 14 2 17 3 16 4 27 5 15 6 18 7 19 9 20 10 21 11 24 12
REMARK SMILES IDX 23 13 26 14 22 15 25 16 28 17 12 20 10 21 11 22 9 23 8 25
REMARK SMILES IDX 7 26 3 27 6 28 4 29 5 30 2 31 1 32
REMARK H PARENT 18 8 28 18 28 19 9 24
ROOT
ATOM      1  S   UNL     1      52.383  51.341  19.055  1.00  0.00    -0.074 SA
ENDROOT
BRANCH   1   2
ATOM      2  C   UNL     1      52.057  52.348  20.423  1.00  0.00    +0.211 A 
ATOM      3  C   UNL     1      51.773  54.126  21.674  1.00  0.00    +0.264 A 
ATOM      4  N   UNL     1      51.563  53.053  22.418  1.00  0.00    -0.107 NA
ATOM      5  N   UNL     1      52.097  53.719  20.392  1.00  0.00    -0.202 N 
ATOM      6  N   UNL     1      51.749  51.932  21.631  1.00  0.00    -0.119 NA
BRANCH   3   7
ATOM      7  N   UNL     1      51.701  55.455  21.990  1.00  0.00    -0.244 N 
ATOM      8  H   UNL     1      51.854  55.682  22.973  1.00  0.00    +0.193 HD
BRANCH   7   9
ATOM      9  N   UNL     1      50.932  56.393  21.348  1.00  0.00    -0.177 NA
ATOM     10  C   UNL     1      49.690  56.088  21.116  1.00  0.00    +0.180 C 
BRANCH  10  11
ATOM     11  C   UNL     1      48.824  57.020  20.450  1.00  0.00    +0.147 A 
ATOM     12  C   UNL     1      47.825  57.895  18.698  1.00  0.00    +0.101 A 
ATOM     13  C   UNL     1      47.417  58.639  19.786  1.00  0.00    +0.046 A 
ATOM     14  O   UNL     1      48.681  56.912  19.094  1.00  0.00    -0.460 OA
ATOM     15  C   UNL     1      48.060  58.075  20.915  1.00  0.00    +0.052 A 
ATOM     16  C   UNL     1      47.523  57.953  17.253  1.00  0.00    +0.087 C 
ENDBRANCH  10  11
ENDBRANCH   7   9
ENDBRANCH   3   7
BRANCH   5  17
ATOM     17  N   UNL     1      52.407  54.565  19.267  1.00  0.00    -0.334 N 
ATOM     18  H   UNL     1      51.644  54.598  18.598  1.00  0.00    +0.178 HD
ATOM     19  H   UNL     1      52.611  55.519  19.565  1.00  0.00    +0.178 HD
ENDBRANCH   5  17
ENDBRANCH   1   2
BRANCH   1  20
ATOM     20  C   UNL     1      52.100  49.714  19.809  1.00  0.00    +0.178 C 
BRANCH  20  21
ATOM     21  C   UNL     1      50.618  49.371  19.828  1.00  0.00    +0.234 C 
ATOM     22  O   UNL     1      50.094  48.887  20.827  1.00  0.00    -0.274 OA
ATOM     23  N   UNL     1      49.973  49.663  18.640  1.00  0.00    -0.324 N 
ATOM     24  H   UNL     1      50.562  49.901  17.844  1.00  0.00    +0.170 HD
BRANCH  23  25
ATOM     25  C   UNL     1      48.605  49.497  18.320  1.00  0.00    +0.054 A 
ATOM     26  C   UNL     1      47.838  48.425  18.788  1.00  0.00    +0.027 A 
ATOM     27  C   UNL     1      47.992  50.470  17.498  1.00  0.00    +0.031 A 
ATOM     28  C   UNL     1      46.490  48.303  18.432  1.00  0.00    +0.002 A 
ATOM     29  C   UNL     1      46.644  50.327  17.131  1.00  0.00    +0.017 A 
ATOM     30  C   UNL     1      45.895  49.248  17.599  1.00  0.00    +0.001 A 
BRANCH  27  31
ATOM     31  S   UNL     1      48.929  51.876  16.877  1.00  0.00    -0.127 SA
ATOM     32  C   UNL     1      47.560  52.935  16.333  1.00  0.00    +0.091 C 
ENDBRANCH  27  31
ENDBRANCH  23  25
ENDBRANCH  20  21
ENDBRANCH   1  20
TORSDOF 9
ENDMDL
MODEL 2
REMARK VINA RESULT:    -8.478      2.923      8.114
REMARK INTER + INTRA:         -13.637
REMARK INTER:                 -12.786
REMARK INTRA:                  -0.851
REMARK UNBOUND:                -0.946
REMARK SMILES CSc1ccccc1NC(=O)CSc1nnc(N/N=C/c2ccc(C)o2)n1N
REMARK SMILES IDX 13 1 14 2 17 3 16 4 27 5 15 6 18 7 19 9 20 10 21 11 24 12
REMARK SMILES IDX 23 13 26 14 22 15 25 16 28 17 12 20 10 21 11 22 9 23 8 25
REMARK SMILES IDX 7 26 3 27 6 28 4 29 5 30 2 31 1 32
REMARK H PARENT 18 8 28 18 28 19 9 24
ROOT
ATOM      1  S   UNL     1      51.460  51.707  20.697  1.00  0.00    -0.074 SA
ENDROOT
BRANCH   1   2
ATOM      2  C   UNL     1      50.455  51.024  19.466  1.00  0.00    +0.211 A 
ATOM      3  C   UNL     1      49.456  49.562  18.172  1.00  0.00    +0.264 A 
ATOM      4  N   UNL     1      49.058  50.773  17.821  1.00  0.00    -0.107 NA
ATOM      5  N   UNL     1      50.355  49.678  19.218  1.00  0.00    -0.202 N 
ATOM      6  N   UNL     1      49.693  51.695  18.632  1.00  0.00    -0.119 NA
BRANCH   3   7
ATOM      7  N   UNL     1      49.108  48.334  17.681  1.00  0.00    -0.244 N 
ATOM      8  H   UNL     1      49.826  47.612  17.752  1.00  0.00    +0.193 HD
BRANCH   7   9
ATOM      9  N   UNL     1      48.228  48.098  16.654  1.00  0.00    -0.177 NA
ATOM     10  C   UNL     1      46.960  48.143  16.935  1.00  0.00    +0.180 C 
BRANCH  10  11
ATOM     11  C   UNL     1      45.980  47.908  15.911  1.00  0.00    +0.147 A 
ATOM     12  C   UNL     1      45.272  47.795  13.833  1.00  0.00    +0.101 A 
ATOM     13  C   UNL     1      44.193  47.465  14.627  1.00  0.00    +0.046 A 
ATOM     14  O   UNL     1      46.359  48.068  14.607  1.00  0.00    -0.460 OA
ATOM     15  C   UNL     1      44.649  47.536  15.965  1.00  0.00    +0.052 A 
ATOM     16  C   UNL     1      45.468  47.901  12.373  1.00  0.00    +0.087 C 
ENDBRANCH  10  11
ENDBRANCH   7   9
ENDBRANCH   3   7
BRANCH   5  17
ATOM     17  N   UNL     1      51.036  48.605  19.897  1.00  0.00    -0.334 N 
ATOM     18  H   UNL     1      51.619  48.948  20.655  1.00  0.00    +0.178 HD
ATOM     19  H   UNL     1      50.375  47.931  20.283  1.00  0.00    +0.178 HD
ENDBRANCH   5  17
ENDBRANCH   1   2
BRANCH   1  20
ATOM     20  C   UNL     1      52.446  52.842  19.681  1.00  0.00    +0.178 C 
BRANCH  20  21
ATOM     21  C   UNL     1      51.776  54.205  19.578  1.00  0.00    +0.234 C 
ATOM     22  O   UNL     1      52.179  55.049  18.783  1.00  0.00    -0.274 OA
ATOM     23  N   UNL     1      50.712  54.359  20.448  1.00  0.00    -0.324 N 
ATOM     24  H   UNL     1      50.599  53.645  21.165  1.00  0.00    +0.170 HD
BRANCH  23  25
ATOM     25  C   UNL     1      49.859  55.477  20.603  1.00  0.00    +0.054 A 
ATOM     26  C   UNL     1      48.676  55.638  19.874  1.00  0.00    +0.027 A 
ATOM     27  C   UNL     1      50.222  56.464  21.547  1.00  0.00    +0.031 A 
ATOM     28  C   UNL     1      47.874  56.769  20.060  1.00  0.00    +0.002 A 
ATOM     29  C   UNL     1      49.419  57.604  21.711  1.00  0.00    +0.017 A 
ATOM     30  C   UNL     1      48.247  57.754  20.970  1.00  0.00    +0.001 A 
BRANCH  27  31
ATOM     31  S   UNL     1      51.728  56.301  22.520  1.00  0.00    -0.127 SA
ATOM     32  C   UNL     1      52.783  57.489  21.644  1.00  0.00    +0.091 C 
ENDBRANCH  27  31
ENDBRANCH  23  25
ENDBRANCH  20  21
ENDBRANCH   1  20
TORSDOF 9
ENDMDL
MODEL 3
REMARK VINA RESULT:    -8.459      2.116      7.447
REMARK INTER + INTRA:         -13.608
REMARK INTER:                 -12.813
REMARK INTRA:                  -0.794
REMARK UNBOUND:                -0.946
REMARK SMILES CSc1ccccc1NC(=O)CSc1nnc(N/N=C/c2ccc(C)o2)n1N
REMARK SMILES IDX 13 1 14 2 17 3 16 4 27 5 15 6 18 7 19 9 20 10 21 11 24 12
REMARK SMILES IDX 23 13 26 14 22 15 25 16 28 17 12 20 10 21 11 22 9 23 8 25
REMARK SMILES IDX 7 26 3 27 6 28 4 29 5 30 2 31 1 32
REMARK H PARENT 18 8 28 18 28 19 9 24
ROOT
ATOM      1  S   UNL     1      51.594  53.010  21.488  1.00  0.00    -0.074 SA
ENDROOT
BRANCH   1   2
ATOM      2  C   UNL     1      51.435  51.541  20.587  1.00  0.00    +0.211 A 
ATOM      3  C   UNL     1      50.787  50.090  19.076  1.00  0.00    +0.264 A 
ATOM      4  N   UNL     1      51.652  49.498  19.882  1.00  0.00    -0.107 NA
ATOM      5  N   UNL     1      50.616  51.398  19.496  1.00  0.00    -0.202 N 
ATOM      6  N   UNL     1      52.054  50.411  20.839  1.00  0.00    -0.119 NA
BRANCH   3   7
ATOM      7  N   UNL     1      50.122  49.614  17.980  1.00  0.00    -0.244 N 
ATOM      8  H   UNL     1      50.246  50.153  17.122  1.00  0.00    +0.193 HD
BRANCH   7   9
ATOM      9  N   UNL     1      48.939  48.920  17.996  1.00  0.00    -0.177 NA
ATOM     10  C   UNL     1      47.840  49.613  17.938  1.00  0.00    +0.180 C 
BRANCH  10  11
ATOM     11  C   UNL     1      46.564  48.955  17.949  1.00  0.00    +0.147 A 
ATOM     12  C   UNL     1      45.015  47.647  18.799  1.00  0.00    +0.101 A 
ATOM     13  C   UNL     1      44.514  48.108  17.599  1.00  0.00    +0.046 A 
ATOM     14  O   UNL     1      46.261  48.155  19.015  1.00  0.00    -0.460 OA
ATOM     15  C   UNL     1      45.511  48.953  17.053  1.00  0.00    +0.052 A 
ATOM     16  C   UNL     1      44.485  46.751  19.847  1.00  0.00    +0.087 C 
ENDBRANCH  10  11
ENDBRANCH   7   9
ENDBRANCH   3   7
BRANCH   5  17
ATOM     17  N   UNL     1      49.757  52.392  18.902  1.00  0.00    -0.334 N 
ATOM     18  H   UNL     1      50.143  52.755  18.035  1.00  0.00    +0.178 HD
ATOM     19  H   UNL     1      48.831  52.013  18.704  1.00  0.00    +0.178 HD
ENDBRANCH   5  17
ENDBRANCH   1   2
BRANCH   1  20
ATOM     20  C   UNL     1      52.257  54.088  20.187  1.00  0.00    +0.178 C 
BRANCH  20  21
ATOM     21  C   UNL     1      51.638  55.476  20.259  1.00  0.00    +0.234 C 
ATOM     22  O   UNL     1      52.342  56.482  20.280  1.00  0.00    -0.274 OA
ATOM     23  N   UNL     1      50.256  55.457  20.295  1.00  0.00    -0.324 N 
ATOM     24  H   UNL     1      49.812  54.553  20.443  1.00  0.00    +0.170 HD
BRANCH  23  25
ATOM     25  C   UNL     1      49.364  56.555  20.340  1.00  0.00    +0.054 A 
ATOM     26  C   UNL     1      49.223  57.376  21.464  1.00  0.00    +0.027 A 
ATOM     27  C   UNL     1      48.595  56.834  19.187  1.00  0.00    +0.031 A 
ATOM     28  C   UNL     1      48.318  58.443  21.458  1.00  0.00    +0.002 A 
ATOM     29  C   UNL     1      47.675  57.895  19.200  1.00  0.00    +0.017 A 
ATOM     30  C   UNL     1      47.540  58.699  20.331  1.00  0.00    +0.001 A 
BRANCH  27  31
ATOM     31  S   UNL     1      48.745  55.817  17.709  1.00  0.00    -0.127 SA
ATOM     32  C   UNL     1      48.078  56.972  16.479  1.00  0.00    +0.091 C 
ENDBRANCH  27  31
ENDBRANCH  23  25
ENDBRANCH  20  21
ENDBRANCH   1  20
TORSDOF 9
ENDMDL
MODEL 4
REMARK VINA RESULT:    -7.704      2.379      6.190
REMARK INTER + INTRA:         -12.477
REMARK INTER:                 -10.981
REMARK INTRA:                  -1.496
REMARK UNBOUND:                -0.946
REMARK SMILES CSc1ccccc1NC(=O)CSc1nnc(N/N=C/c2ccc(C)o2)n1N
REMARK SMILES IDX 13 1 14 2 17 3 16 4 27 5 15 6 18 7 19 9 20 10 21 11 24 12
REMARK SMILES IDX 23 13 26 14 22 15 25 16 28 17 12 20 10 21 11 22 9 23 8 25
REMARK SMILES IDX 7 26 3 27 6 28 4 29 5 30 2 31 1 32
REMARK H PARENT 18 8 28 18 28 19 9 24
ROOT
ATOM      1  S   UNL     1      51.332  56.563  21.804  1.00  0.00    -0.074 SA
ENDROOT
BRANCH   1   2
ATOM      2  C   UNL     1      51.871  55.249  20.815  1.00  0.00    +0.211 A 
ATOM      3  C   UNL     1      52.309  53.217  20.118  1.00  0.00    +0.264 A 
ATOM      4  N   UNL     1      52.701  54.073  19.189  1.00  0.00    -0.107 NA
ATOM      5  N   UNL     1      51.776  53.930  21.178  1.00  0.00    -0.202 N 
ATOM      6  N   UNL     1      52.432  55.354  19.632  1.00  0.00    -0.119 NA
BRANCH   3   7
ATOM      7  N   UNL     1      52.351  51.851  20.143  1.00  0.00    -0.244 N 
ATOM      8  H   UNL     1      53.249  51.434  19.892  1.00  0.00    +0.193 HD
BRANCH   7   9
ATOM      9  N   UNL     1      51.296  51.009  19.898  1.00  0.00    -0.177 NA
ATOM     10  C   UNL     1      51.054  50.701  18.659  1.00  0.00    +0.180 C 
BRANCH  10  11
ATOM     11  C   UNL     1      49.967  49.824  18.325  1.00  0.00    +0.147 A 
ATOM     12  C   UNL     1      48.632  48.758  16.942  1.00  0.00    +0.101 A 
ATOM     13  C   UNL     1      48.217  48.422  18.213  1.00  0.00    +0.046 A 
ATOM     14  O   UNL     1      49.692  49.612  17.003  1.00  0.00    -0.460 OA
ATOM     15  C   UNL     1      49.077  49.108  19.105  1.00  0.00    +0.052 A 
ATOM     16  C   UNL     1      48.172  48.386  15.588  1.00  0.00    +0.087 C 
ENDBRANCH  10  11
ENDBRANCH   7   9
ENDBRANCH   3   7
BRANCH   5  17
ATOM     17  N   UNL     1      51.237  53.389  22.400  1.00  0.00    -0.334 N 
ATOM     18  H   UNL     1      51.963  52.994  22.991  1.00  0.00    +0.178 HD
ATOM     19  H   UNL     1      50.743  54.102  22.937  1.00  0.00    +0.178 HD
ENDBRANCH   5  17
ENDBRANCH   1   2
BRANCH   1  20
ATOM     20  C   UNL     1      50.282  57.429  20.602  1.00  0.00    +0.178 C 
BRANCH  20  21
ATOM     21  C   UNL     1      49.236  56.492  20.016  1.00  0.00    +0.234 C 
ATOM     22  O   UNL     1      48.132  56.372  20.538  1.00  0.00    -0.274 OA
ATOM     23  N   UNL     1      49.668  55.833  18.879  1.00  0.00    -0.324 N 
ATOM     24  H   UNL     1      50.659  55.899  18.658  1.00  0.00    +0.170 HD
BRANCH  23  25
ATOM     25  C   UNL     1      48.954  54.915  18.073  1.00  0.00    +0.054 A 
ATOM     26  C   UNL     1      48.933  53.539  18.321  1.00  0.00    +0.027 A 
ATOM     27  C   UNL     1      48.222  55.425  16.976  1.00  0.00    +0.031 A 
ATOM     28  C   UNL     1      48.218  52.674  17.485  1.00  0.00    +0.002 A 
ATOM     29  C   UNL     1      47.524  54.545  16.132  1.00  0.00    +0.017 A 
ATOM     30  C   UNL     1      47.521  53.175  16.388  1.00  0.00    +0.001 A 
BRANCH  27  31
ATOM     31  S   UNL     1      48.205  57.188  16.617  1.00  0.00    -0.127 SA
ATOM     32  C   UNL     1      47.769  57.135  14.857  1.00  0.00    +0.091 C 
ENDBRANCH  27  31
ENDBRANCH  23  25
ENDBRANCH  20  21
ENDBRANCH   1  20
TORSDOF 9
ENDMDL
MODEL 5
REMARK VINA RESULT:    -7.524      3.342      8.516
REMARK INTER + INTRA:         -12.208
REMARK INTER:                 -11.351
REMARK INTRA:                  -0.857
REMARK UNBOUND:                -0.946
REMARK SMILES CSc1ccccc1NC(=O)CSc1nnc(N/N=C/c2ccc(C)o2)n1N
REMARK SMILES IDX 13 1 14 2 17 3 16 4 27 5 15 6 18 7 19 9 20 10 21 11 24 12
REMARK SMILES IDX 23 13 26 14 22 15 25 16 28 17 12 20 10 21 11 22 9 23 8 25
REMARK SMILES IDX 7 26 3 27 6 28 4 29 5 30 2 31 1 32
REMARK H PARENT 18 8 28 18 28 19 9 24
ROOT
ATOM      1  S   UNL     1      50.131  52.085  17.793  1.00  0.00    -0.074 SA
ENDROOT
BRANCH   1   2
ATOM      2  C   UNL     1      49.397  50.593  18.273  1.00  0.00    +0.211 A 
ATOM      3  C   UNL     1      47.920  48.994  18.536  1.00  0.00    +0.264 A 
ATOM      4  N   UNL     1      49.045  48.627  19.126  1.00  0.00    -0.107 NA
ATOM      5  N   UNL     1      48.101  50.250  17.981  1.00  0.00    -0.202 N 
ATOM      6  N   UNL     1      49.974  49.638  18.966  1.00  0.00    -0.119 NA
BRANCH   3   7
ATOM      7  N   UNL     1      46.726  48.339  18.410  1.00  0.00    -0.244 N 
ATOM      8  H   UNL     1      46.640  47.474  18.946  1.00  0.00    +0.193 HD
BRANCH   7   9
ATOM      9  N   UNL     1      45.914  48.352  17.304  1.00  0.00    -0.177 NA
ATOM     10  C   UNL     1      46.330  47.714  16.251  1.00  0.00    +0.180 C 
BRANCH  10  11
ATOM     11  C   UNL     1      45.533  47.682  15.058  1.00  0.00    +0.147 A 
ATOM     12  C   UNL     1      43.700  47.296  13.907  1.00  0.00    +0.101 A 
ATOM     13  C   UNL     1      44.627  47.772  13.005  1.00  0.00    +0.046 A 
ATOM     14  O   UNL     1      44.244  47.236  15.155  1.00  0.00    -0.460 OA
ATOM     15  C   UNL     1      45.808  48.023  13.746  1.00  0.00    +0.052 A 
ATOM     16  C   UNL     1      42.293  46.860  13.788  1.00  0.00    +0.087 C 
ENDBRANCH  10  11
ENDBRANCH   7   9
ENDBRANCH   3   7
BRANCH   5  17
ATOM     17  N   UNL     1      47.127  51.022  17.253  1.00  0.00    -0.334 N 
ATOM     18  H   UNL     1      47.566  51.650  16.586  1.00  0.00    +0.178 HD
ATOM     19  H   UNL     1      46.479  50.420  16.746  1.00  0.00    +0.178 HD
ENDBRANCH   5  17
ENDBRANCH   1   2
BRANCH   1  20
ATOM     20  C   UNL     1      51.172  52.386  19.249  1.00  0.00    +0.178 C 
BRANCH  20  21
ATOM     21  C   UNL     1      50.516  53.383  20.193  1.00  0.00    +0.234 C 
ATOM     22  O   UNL     1      50.279  53.086  21.361  1.00  0.00    -0.274 OA
ATOM     23  N   UNL     1      50.238  54.599  19.597  1.00  0.00    -0.324 N 
ATOM     24  H   UNL     1      50.331  54.646  18.584  1.00  0.00    +0.170 HD
BRANCH  23  25
ATOM     25  C   UNL     1      49.656  55.750  20.180  1.00  0.00    +0.054 A 
ATOM     26  C   UNL     1      48.289  56.035  20.102  1.00  0.00    +0.027 A 
ATOM     27  C   UNL     1      50.503  56.638  20.883  1.00  0.00    +0.031 A 
ATOM     28  C   UNL     1      47.768  57.194  20.689  1.00  0.00    +0.002 A 
ATOM     29  C   UNL     1      49.972  57.808  21.451  1.00  0.00    +0.017 A 
ATOM     30  C   UNL     1      48.608  58.082  21.356  1.00  0.00    +0.001 A 
BRANCH  27  31
ATOM     31  S   UNL     1      52.267  56.313  21.025  1.00  0.00    -0.127 SA
ATOM     32  C   UNL     1      52.813  57.902  21.709  1.00  0.00    +0.091 C 
ENDBRANCH  27  31
ENDBRANCH  23  25
ENDBRANCH  20  21
ENDBRANCH   1  20
TORSDOF 9
ENDMDL
