MODEL 1
REMARK VINA RESULT:    -9.276      0.000      0.000
REMARK INTER + INTRA:         -16.103
REMARK INTER:                 -14.156
REMARK INTRA:                  -1.947
REMARK UNBOUND:                -1.947
REMARK SMILES CC(C)C[C@H](C(=O)O[C@@H](C)C(=O)Nc1sccc1C(N)=O)N1C(=O)[C@H]2CC=CC[C@H]2C1=O
REMARK SMILES IDX 8 1 9 2 10 3 11 4 12 5 13 6 14 8 18 9 15 10 17 11 16 12
REMARK SMILES IDX 19 13 21 14 20 15 6 18 7 19 5 20 4 21 2 22 1 23 3 24 22 25
REMARK SMILES IDX 31 26 23 27 32 28 30 29 25 30 24 31 29 32 26 33 28 34 27 35
REMARK H PARENT 13 7 20 16 20 17
ROOT
ATOM      1  O   UNL     1      51.608  51.799  18.507  1.00  0.00    -0.451 OA
ENDROOT
BRANCH   1   2
ATOM      2  C   UNL     1      52.137  52.496  19.649  1.00  0.00    +0.262 C 
ATOM      3  C   UNL     1      53.194  53.462  19.129  1.00  0.00    +0.064 C 
BRANCH   2   4
ATOM      4  C   UNL     1      51.065  53.305  20.409  1.00  0.00    +0.265 C 
ATOM      5  O   UNL     1      50.452  52.808  21.348  1.00  0.00    -0.270 OA
ATOM      6  N   UNL     1      50.971  54.604  19.939  1.00  0.00    -0.314 N 
ATOM      7  H   UNL     1      51.525  54.830  19.113  1.00  0.00    +0.170 HD
BRANCH   6   8
ATOM      8  C   UNL     1      50.145  55.622  20.378  1.00  0.00    +0.108 A 
ATOM      9  C   UNL     1      50.420  56.481  21.435  1.00  0.00    +0.074 A 
ATOM     10  S   UNL     1      48.640  55.919  19.657  1.00  0.00    -0.126 S 
ATOM     11  C   UNL     1      49.323  57.390  21.636  1.00  0.00    +0.028 A 
ATOM     12  C   UNL     1      48.297  57.190  20.739  1.00  0.00    +0.068 A 
BRANCH   9  13
ATOM     13  C   UNL     1      51.679  56.409  22.181  1.00  0.00    +0.251 C 
ATOM     14  O   UNL     1      52.052  55.396  22.770  1.00  0.00    -0.269 OA
ATOM     15  N   UNL     1      52.448  57.536  22.202  1.00  0.00    -0.366 N 
ATOM     16  H   UNL     1      53.332  57.488  22.690  1.00  0.00    +0.159 HD
ATOM     17  H   UNL     1      52.215  58.387  21.716  1.00  0.00    +0.159 HD
ENDBRANCH   9  13
ENDBRANCH   6   8
ENDBRANCH   2   4
ENDBRANCH   1   2
BRANCH   1  18
ATOM     18  C   UNL     1      50.778  50.758  18.784  1.00  0.00    +0.330 C 
ATOM     19  O   UNL     1      51.067  49.834  19.536  1.00  0.00    -0.250 OA
BRANCH  18  20
ATOM     20  C   UNL     1      49.393  50.928  18.143  1.00  0.00    +0.203 C 
BRANCH  20  21
ATOM     21  C   UNL     1      49.001  52.283  17.517  1.00  0.00    +0.040 C 
BRANCH  21  22
ATOM     22  C   UNL     1      47.725  52.496  16.678  1.00  0.00    -0.015 C 
ATOM     23  C   UNL     1      46.455  51.935  17.307  1.00  0.00    +0.007 C 
ATOM     24  C   UNL     1      47.526  53.929  16.191  1.00  0.00    +0.007 C 
ENDBRANCH  21  22
ENDBRANCH  20  21
BRANCH  20  25
ATOM     25  N   UNL     1      49.024  49.738  17.385  1.00  0.00    -0.268 N 
ATOM     26  C   UNL     1      49.472  49.490  16.118  1.00  0.00    +0.234 C 
ATOM     27  C   UNL     1      48.198  48.744  17.836  1.00  0.00    +0.234 C 
ATOM     28  O   UNL     1      50.315  50.123  15.499  1.00  0.00    -0.274 OA
ATOM     29  C   UNL     1      48.692  48.327  15.557  1.00  0.00    +0.095 C 
ATOM     30  C   UNL     1      48.254  47.615  16.835  1.00  0.00    +0.095 C 
ATOM     31  O   UNL     1      47.594  48.723  18.895  1.00  0.00    -0.274 OA
ATOM     32  C   UNL     1      47.553  48.891  14.698  1.00  0.00    +0.041 C 
ATOM     33  C   UNL     1      46.992  46.769  16.752  1.00  0.00    +0.041 C 
ATOM     34  C   UNL     1      46.271  48.127  14.778  1.00  0.00    -0.030 C 
ATOM     35  C   UNL     1      46.023  47.183  15.691  1.00  0.00    -0.030 C 
ENDBRANCH  20  25
ENDBRANCH  18  20
ENDBRANCH   1  18
TORSDOF 9
ENDMDL
MODEL 2
REMARK VINA RESULT:    -7.947      2.276      7.334
REMARK INTER + INTRA:         -14.076
REMARK INTER:                 -12.514
REMARK INTRA:                  -1.562
REMARK UNBOUND:                -1.947
REMARK SMILES CC(C)C[C@H](C(=O)O[C@@H](C)C(=O)Nc1sccc1C(N)=O)N1C(=O)[C@H]2CC=CC[C@H]2C1=O
REMARK SMILES IDX 8 1 9 2 10 3 11 4 12 5 13 6 14 8 18 9 15 10 17 11 16 12
REMARK SMILES IDX 19 13 21 14 20 15 6 18 7 19 5 20 4 21 2 22 1 23 3 24 22 25
REMARK SMILES IDX 31 26 23 27 32 28 30 29 25 30 24 31 29 32 26 33 28 34 27 35
REMARK H PARENT 13 7 20 16 20 17
ROOT
ATOM      1  O   UNL     1      49.365  53.622  17.687  1.00  0.00    -0.451 OA
ENDROOT
BRANCH   1   2
ATOM      2  C   UNL     1      48.066  53.045  17.466  1.00  0.00    +0.262 C 
ATOM      3  C   UNL     1      47.605  53.502  16.088  1.00  0.00    +0.064 C 
BRANCH   2   4
ATOM      4  C   UNL     1      48.082  51.502  17.491  1.00  0.00    +0.265 C 
ATOM      5  O   UNL     1      48.942  50.893  18.118  1.00  0.00    -0.270 OA
ATOM      6  N   UNL     1      47.007  50.966  16.803  1.00  0.00    -0.314 N 
ATOM      7  H   UNL     1      46.416  51.625  16.296  1.00  0.00    +0.170 HD
BRANCH   6   8
ATOM      8  C   UNL     1      46.676  49.636  16.623  1.00  0.00    +0.108 A 
ATOM      9  C   UNL     1      47.323  48.755  15.764  1.00  0.00    +0.074 A 
ATOM     10  S   UNL     1      45.375  48.924  17.445  1.00  0.00    -0.126 S 
ATOM     11  C   UNL     1      46.688  47.464  15.804  1.00  0.00    +0.028 A 
ATOM     12  C   UNL     1      45.621  47.424  16.675  1.00  0.00    +0.068 A 
BRANCH   9  13
ATOM     13  C   UNL     1      48.488  49.162  14.975  1.00  0.00    +0.251 C 
ATOM     14  O   UNL     1      48.428  50.002  14.078  1.00  0.00    -0.269 OA
ATOM     15  N   UNL     1      49.676  48.563  15.276  1.00  0.00    -0.366 N 
ATOM     16  H   UNL     1      50.492  48.858  14.755  1.00  0.00    +0.159 HD
ATOM     17  H   UNL     1      49.798  47.893  16.017  1.00  0.00    +0.159 HD
ENDBRANCH   9  13
ENDBRANCH   6   8
ENDBRANCH   2   4
ENDBRANCH   1   2
BRANCH   1  18
ATOM     18  C   UNL     1      49.413  54.637  18.591  1.00  0.00    +0.330 C 
ATOM     19  O   UNL     1      48.423  55.224  19.013  1.00  0.00    -0.250 OA
BRANCH  18  20
ATOM     20  C   UNL     1      50.835  54.890  19.112  1.00  0.00    +0.203 C 
BRANCH  20  21
ATOM     21  C   UNL     1      51.148  56.194  19.877  1.00  0.00    +0.040 C 
BRANCH  21  22
ATOM     22  C   UNL     1      50.739  56.439  21.343  1.00  0.00    -0.015 C 
ATOM     23  C   UNL     1      51.861  56.233  22.354  1.00  0.00    +0.007 C 
ATOM     24  C   UNL     1      50.004  57.756  21.578  1.00  0.00    +0.007 C 
ENDBRANCH  21  22
ENDBRANCH  20  21
BRANCH  20  25
ATOM     25  N   UNL     1      51.410  53.668  19.661  1.00  0.00    -0.268 N 
ATOM     26  C   UNL     1      52.532  53.075  19.152  1.00  0.00    +0.234 C 
ATOM     27  C   UNL     1      50.908  52.974  20.729  1.00  0.00    +0.234 C 
ATOM     28  O   UNL     1      53.270  53.521  18.287  1.00  0.00    -0.274 OA
ATOM     29  C   UNL     1      52.680  51.714  19.787  1.00  0.00    +0.095 C 
ATOM     30  C   UNL     1      51.914  51.909  21.094  1.00  0.00    +0.095 C 
ATOM     31  O   UNL     1      49.883  53.221  21.341  1.00  0.00    -0.274 OA
ATOM     32  C   UNL     1      52.085  50.677  18.827  1.00  0.00    +0.041 C 
ATOM     33  C   UNL     1      51.322  50.661  21.734  1.00  0.00    +0.041 C 
ATOM     34  C   UNL     1      51.358  49.553  19.491  1.00  0.00    -0.030 C 
ATOM     35  C   UNL     1      51.020  49.546  20.784  1.00  0.00    -0.030 C 
ENDBRANCH  20  25
ENDBRANCH  18  20
ENDBRANCH   1  18
TORSDOF 9
ENDMDL
MODEL 3
REMARK VINA RESULT:    -7.587      1.400      2.168
REMARK INTER + INTRA:         -13.526
REMARK INTER:                 -12.792
REMARK INTRA:                  -0.735
REMARK UNBOUND:                -1.947
REMARK SMILES CC(C)C[C@H](C(=O)O[C@@H](C)C(=O)Nc1sccc1C(N)=O)N1C(=O)[C@H]2CC=CC[C@H]2C1=O
REMARK SMILES IDX 8 1 9 2 10 3 11 4 12 5 13 6 14 8 18 9 15 10 17 11 16 12
REMARK SMILES IDX 19 13 21 14 20 15 6 18 7 19 5 20 4 21 2 22 1 23 3 24 22 25
REMARK SMILES IDX 31 26 23 27 32 28 30 29 25 30 24 31 29 32 26 33 28 34 27 35
REMARK H PARENT 13 7 20 16 20 17
ROOT
ATOM      1  O   UNL     1      50.981  52.260  18.456  1.00  0.00    -0.451 OA
ENDROOT
BRANCH   1   2
ATOM      2  C   UNL     1      51.689  52.686  19.633  1.00  0.00    +0.262 C 
ATOM      3  C   UNL     1      52.912  53.460  19.160  1.00  0.00    +0.064 C 
BRANCH   2   4
ATOM      4  C   UNL     1      50.848  53.606  20.542  1.00  0.00    +0.265 C 
ATOM      5  O   UNL     1      50.429  53.207  21.624  1.00  0.00    -0.270 OA
ATOM      6  N   UNL     1      50.719  54.877  20.009  1.00  0.00    -0.314 N 
ATOM      7  H   UNL     1      51.091  55.017  19.070  1.00  0.00    +0.170 HD
BRANCH   6   8
ATOM      8  C   UNL     1      50.058  55.970  20.538  1.00  0.00    +0.108 A 
ATOM      9  C   UNL     1      50.549  56.798  21.541  1.00  0.00    +0.074 A 
ATOM     10  S   UNL     1      48.508  56.412  20.013  1.00  0.00    -0.126 S 
ATOM     11  C   UNL     1      49.580  57.810  21.869  1.00  0.00    +0.028 A 
ATOM     12  C   UNL     1      48.431  57.711  21.114  1.00  0.00    +0.068 A 
BRANCH   9  13
ATOM     13  C   UNL     1      51.881  56.605  22.118  1.00  0.00    +0.251 C 
ATOM     14  O   UNL     1      52.134  55.721  22.936  1.00  0.00    -0.269 OA
ATOM     15  N   UNL     1      52.860  57.463  21.710  1.00  0.00    -0.366 N 
ATOM     16  H   UNL     1      53.790  57.320  22.083  1.00  0.00    +0.159 HD
ATOM     17  H   UNL     1      52.725  58.186  21.023  1.00  0.00    +0.159 HD
ENDBRANCH   9  13
ENDBRANCH   6   8
ENDBRANCH   2   4
ENDBRANCH   1   2
BRANCH   1  18
ATOM     18  C   UNL     1      50.216  51.145  18.599  1.00  0.00    +0.330 C 
ATOM     19  O   UNL     1      50.025  50.579  19.669  1.00  0.00    -0.250 OA
BRANCH  18  20
ATOM     20  C   UNL     1      49.522  50.739  17.290  1.00  0.00    +0.203 C 
BRANCH  20  21
ATOM     21  C   UNL     1      50.371  50.413  16.044  1.00  0.00    +0.040 C 
BRANCH  21  22
ATOM     22  C   UNL     1      49.829  49.645  14.822  1.00  0.00    -0.015 C 
ATOM     23  C   UNL     1      49.994  48.133  14.902  1.00  0.00    +0.007 C 
ATOM     24  C   UNL     1      48.409  50.035  14.415  1.00  0.00    +0.007 C 
ENDBRANCH  21  22
ENDBRANCH  20  21
BRANCH  20  25
ATOM     25  N   UNL     1      48.398  49.847  17.555  1.00  0.00    -0.268 N 
ATOM     26  C   UNL     1      48.552  48.546  17.943  1.00  0.00    +0.234 C 
ATOM     27  C   UNL     1      47.079  50.193  17.447  1.00  0.00    +0.234 C 
ATOM     28  O   UNL     1      49.597  47.988  18.245  1.00  0.00    -0.274 OA
ATOM     29  C   UNL     1      47.208  47.865  17.869  1.00  0.00    +0.095 C 
ATOM     30  C   UNL     1      46.262  49.056  18.011  1.00  0.00    +0.095 C 
ATOM     31  O   UNL     1      46.634  51.259  17.056  1.00  0.00    -0.274 OA
ATOM     32  C   UNL     1      47.128  47.121  16.530  1.00  0.00    +0.041 C 
ATOM     33  C   UNL     1      44.872  48.904  17.409  1.00  0.00    +0.041 C 
ATOM     34  C   UNL     1      45.781  47.142  15.882  1.00  0.00    -0.030 C 
ATOM     35  C   UNL     1      44.779  47.935  16.274  1.00  0.00    -0.030 C 
ENDBRANCH  20  25
ENDBRANCH  18  20
ENDBRANCH   1  18
TORSDOF 9
ENDMDL
MODEL 4
REMARK VINA RESULT:    -7.299      3.057      8.697
REMARK INTER + INTRA:         -13.086
REMARK INTER:                 -11.455
REMARK INTRA:                  -1.632
REMARK UNBOUND:                -1.947
REMARK SMILES CC(C)C[C@H](C(=O)O[C@@H](C)C(=O)Nc1sccc1C(N)=O)N1C(=O)[C@H]2CC=CC[C@H]2C1=O
REMARK SMILES IDX 8 1 9 2 10 3 11 4 12 5 13 6 14 8 18 9 15 10 17 11 16 12
REMARK SMILES IDX 19 13 21 14 20 15 6 18 7 19 5 20 4 21 2 22 1 23 3 24 22 25
REMARK SMILES IDX 31 26 23 27 32 28 30 29 25 30 24 31 29 32 26 33 28 34 27 35
REMARK H PARENT 13 7 20 16 20 17
ROOT
ATOM      1  O   UNL     1      49.094  50.970  16.390  1.00  0.00    -0.451 OA
ENDROOT
BRANCH   1   2
ATOM      2  C   UNL     1      48.175  49.957  16.837  1.00  0.00    +0.262 C 
ATOM      3  C   UNL     1      46.894  50.671  17.249  1.00  0.00    +0.064 C 
BRANCH   2   4
ATOM      4  C   UNL     1      47.831  48.929  15.738  1.00  0.00    +0.265 C 
ATOM      5  O   UNL     1      48.672  48.128  15.343  1.00  0.00    -0.270 OA
ATOM      6  N   UNL     1      46.503  49.009  15.357  1.00  0.00    -0.314 N 
ATOM      7  H   UNL     1      45.959  49.774  15.757  1.00  0.00    +0.170 HD
BRANCH   6   8
ATOM      8  C   UNL     1      45.827  48.247  14.422  1.00  0.00    +0.108 A 
ATOM      9  C   UNL     1      44.850  47.302  14.710  1.00  0.00    +0.074 A 
ATOM     10  S   UNL     1      46.157  48.375  12.764  1.00  0.00    -0.126 S 
ATOM     11  C   UNL     1      44.392  46.674  13.498  1.00  0.00    +0.028 A 
ATOM     12  C   UNL     1      45.021  47.166  12.375  1.00  0.00    +0.068 A 
BRANCH   9  13
ATOM     13  C   UNL     1      44.399  47.050  16.081  1.00  0.00    +0.251 C 
ATOM     14  O   UNL     1      44.297  47.939  16.926  1.00  0.00    -0.269 OA
ATOM     15  N   UNL     1      44.087  45.761  16.401  1.00  0.00    -0.366 N 
ATOM     16  H   UNL     1      43.748  45.582  17.336  1.00  0.00    +0.159 HD
ATOM     17  H   UNL     1      44.119  44.995  15.748  1.00  0.00    +0.159 HD
ENDBRANCH   9  13
ENDBRANCH   6   8
ENDBRANCH   2   4
ENDBRANCH   1   2
BRANCH   1  18
ATOM     18  C   UNL     1      50.392  50.789  16.755  1.00  0.00    +0.330 C 
ATOM     19  O   UNL     1      51.290  50.506  15.970  1.00  0.00    -0.250 OA
BRANCH  18  20
ATOM     20  C   UNL     1      50.630  51.095  18.241  1.00  0.00    +0.203 C 
BRANCH  20  21
ATOM     21  C   UNL     1      51.579  50.197  19.063  1.00  0.00    +0.040 C 
BRANCH  21  22
ATOM     22  C   UNL     1      51.351  49.855  20.549  1.00  0.00    -0.015 C 
ATOM     23  C   UNL     1      51.260  51.067  21.469  1.00  0.00    +0.007 C 
ATOM     24  C   UNL     1      50.210  48.872  20.799  1.00  0.00    +0.007 C 
ENDBRANCH  21  22
ENDBRANCH  20  21
BRANCH  20  25
ATOM     25  N   UNL     1      50.751  52.532  18.462  1.00  0.00    -0.268 N 
ATOM     26  C   UNL     1      51.951  53.186  18.491  1.00  0.00    +0.234 C 
ATOM     27  C   UNL     1      49.701  53.386  18.667  1.00  0.00    +0.234 C 
ATOM     28  O   UNL     1      53.047  52.721  18.218  1.00  0.00    -0.274 OA
ATOM     29  C   UNL     1      51.716  54.587  18.996  1.00  0.00    +0.095 C 
ATOM     30  C   UNL     1      50.246  54.793  18.636  1.00  0.00    +0.095 C 
ATOM     31  O   UNL     1      48.524  53.083  18.763  1.00  0.00    -0.274 OA
ATOM     32  C   UNL     1      52.032  54.609  20.497  1.00  0.00    +0.041 C 
ATOM     33  C   UNL     1      49.469  55.799  19.473  1.00  0.00    +0.041 C 
ATOM     34  C   UNL     1      51.133  55.478  21.314  1.00  0.00    -0.030 C 
ATOM     35  C   UNL     1      49.994  56.008  20.858  1.00  0.00    -0.030 C 
ENDBRANCH  20  25
ENDBRANCH  18  20
ENDBRANCH   1  18
TORSDOF 9
ENDMDL
MODEL 5
REMARK VINA RESULT:    -7.052      3.230      5.284
REMARK INTER + INTRA:         -12.709
REMARK INTER:                 -11.659
REMARK INTRA:                  -1.050
REMARK UNBOUND:                -1.947
REMARK SMILES CC(C)C[C@H](C(=O)O[C@@H](C)C(=O)Nc1sccc1C(N)=O)N1C(=O)[C@H]2CC=CC[C@H]2C1=O
REMARK SMILES IDX 8 1 9 2 10 3 11 4 12 5 13 6 14 8 18 9 15 10 17 11 16 12
REMARK SMILES IDX 19 13 21 14 20 15 6 18 7 19 5 20 4 21 2 22 1 23 3 24 22 25
REMARK SMILES IDX 31 26 23 27 32 28 30 29 25 30 24 31 29 32 26 33 28 34 27 35
REMARK H PARENT 13 7 20 16 20 17
ROOT
ATOM      1  O   UNL     1      48.713  50.735  15.712  1.00  0.00    -0.451 OA
ENDROOT
BRANCH   1   2
ATOM      2  C   UNL     1      49.860  49.916  15.998  1.00  0.00    +0.262 C 
ATOM      3  C   UNL     1      50.660  49.806  14.706  1.00  0.00    +0.064 C 
BRANCH   2   4
ATOM      4  C   UNL     1      50.772  50.515  17.089  1.00  0.00    +0.265 C 
ATOM      5  O   UNL     1      51.972  50.672  16.888  1.00  0.00    -0.270 OA
ATOM      6  N   UNL     1      50.054  50.884  18.213  1.00  0.00    -0.314 N 
ATOM      7  H   UNL     1      49.066  50.631  18.226  1.00  0.00    +0.170 HD
BRANCH   6   8
ATOM      8  C   UNL     1      50.516  51.467  19.378  1.00  0.00    +0.108 A 
ATOM      9  C   UNL     1      51.207  50.807  20.388  1.00  0.00    +0.074 A 
ATOM     10  S   UNL     1      50.252  53.106  19.719  1.00  0.00    -0.126 S 
ATOM     11  C   UNL     1      51.499  51.714  21.467  1.00  0.00    +0.028 A 
ATOM     12  C   UNL     1      51.035  52.989  21.228  1.00  0.00    +0.068 A 
BRANCH   9  13
ATOM     13  C   UNL     1      51.559  49.389  20.283  1.00  0.00    +0.251 C 
ATOM     14  O   UNL     1      50.824  48.485  20.678  1.00  0.00    -0.269 OA
ATOM     15  N   UNL     1      52.765  49.093  19.717  1.00  0.00    -0.366 N 
ATOM     16  H   UNL     1      53.005  48.116  19.614  1.00  0.00    +0.159 HD
ATOM     17  H   UNL     1      53.398  49.783  19.346  1.00  0.00    +0.159 HD
ENDBRANCH   9  13
ENDBRANCH   6   8
ENDBRANCH   2   4
ENDBRANCH   1   2
BRANCH   1  18
ATOM     18  C   UNL     1      47.532  50.294  16.221  1.00  0.00    +0.330 C 
ATOM     19  O   UNL     1      46.712  51.018  16.774  1.00  0.00    -0.250 OA
BRANCH  18  20
ATOM     20  C   UNL     1      47.284  48.808  15.922  1.00  0.00    +0.203 C 
BRANCH  20  21
ATOM     21  C   UNL     1      47.081  47.817  17.088  1.00  0.00    +0.040 C 
BRANCH  21  22
ATOM     22  C   UNL     1      46.659  48.249  18.506  1.00  0.00    -0.015 C 
ATOM     23  C   UNL     1      45.563  47.392  19.127  1.00  0.00    +0.007 C 
ATOM     24  C   UNL     1      47.824  48.457  19.472  1.00  0.00    +0.007 C 
ENDBRANCH  21  22
ENDBRANCH  20  21
BRANCH  20  25
ATOM     25  N   UNL     1      46.390  48.651  14.781  1.00  0.00    -0.268 N 
ATOM     26  C   UNL     1      45.100  48.214  14.896  1.00  0.00    +0.234 C 
ATOM     27  C   UNL     1      46.724  48.912  13.479  1.00  0.00    +0.234 C 
ATOM     28  O   UNL     1      44.479  48.023  15.930  1.00  0.00    -0.274 OA
ATOM     29  C   UNL     1      44.571  47.926  13.513  1.00  0.00    +0.095 C 
ATOM     30  C   UNL     1      45.461  48.826  12.658  1.00  0.00    +0.095 C 
ATOM     31  O   UNL     1      47.820  49.247  13.062  1.00  0.00    -0.274 OA
ATOM     32  C   UNL     1      44.718  46.421  13.254  1.00  0.00    +0.041 C 
ATOM     33  C   UNL     1      45.666  48.410  11.208  1.00  0.00    +0.041 C 
ATOM     34  C   UNL     1      45.092  46.061  11.852  1.00  0.00    -0.030 C 
ATOM     35  C   UNL     1      45.513  46.946  10.944  1.00  0.00    -0.030 C 
ENDBRANCH  20  25
ENDBRANCH  18  20
ENDBRANCH   1  18
TORSDOF 9
ENDMDL
