MODEL 1
REMARK VINA RESULT:    -7.826      0.000      0.000
REMARK INTER + INTRA:         -10.123
REMARK INTER:                  -9.656
REMARK INTRA:                  -0.467
REMARK UNBOUND:                -0.467
REMARK SMILES CC(C)NC(=S)NNC(=O)c1cc(-c2ccccc2)on1
REMARK SMILES IDX 4 1 5 2 6 3 7 4 2 7 1 8 3 9 8 10 9 11 10 12 11 14 12 15
REMARK SMILES IDX 21 16 13 17 20 18 14 19 15 20 19 21 16 22 18 23 17 24
REMARK H PARENT 4 5 7 6 8 13
ROOT
ATOM      1  N   UNL     1      46.601  47.906  16.029  1.00  0.00    -0.359 N 
ATOM      2  C   UNL     1      47.377  48.744  16.762  1.00  0.00    +0.185 C 
ATOM      3  S   UNL     1      48.649  48.078  17.629  1.00  0.00    -0.039 S 
ATOM      4  N   UNL     1      47.100  50.081  16.710  1.00  0.00    -0.274 N 
ATOM      5  H   UNL     1      46.885  46.936  16.119  1.00  0.00    +0.163 HD
ATOM      6  H   UNL     1      46.181  50.396  16.406  1.00  0.00    +0.190 HD
ENDROOT
BRANCH   1   7
ATOM      7  C   UNL     1      45.435  48.140  15.173  1.00  0.00    +0.075 C 
ATOM      8  C   UNL     1      45.770  48.044  13.688  1.00  0.00    +0.030 C 
ATOM      9  C   UNL     1      44.229  47.289  15.559  1.00  0.00    +0.030 C 
ENDBRANCH   1   7
BRANCH   4  10
ATOM     10  N   UNL     1      47.734  50.976  17.599  1.00  0.00    -0.262 N 
ATOM     11  C   UNL     1      48.549  51.957  17.050  1.00  0.00    +0.291 C 
ATOM     12  O   UNL     1      48.850  51.932  15.855  1.00  0.00    -0.265 OA
ATOM     13  H   UNL     1      47.275  51.096  18.498  1.00  0.00    +0.191 HD
BRANCH  11  14
ATOM     14  C   UNL     1      48.994  52.994  17.987  1.00  0.00    +0.173 A 
ATOM     15  C   UNL     1      48.273  54.102  18.519  1.00  0.00    +0.088 A 
ATOM     16  N   UNL     1      50.245  52.986  18.476  1.00  0.00    -0.074 NA
ATOM     17  C   UNL     1      49.162  54.752  19.344  1.00  0.00    +0.167 A 
ATOM     18  O   UNL     1      50.344  54.076  19.313  1.00  0.00    -0.355 OA
BRANCH  17  19
ATOM     19  C   UNL     1      49.106  55.938  20.194  1.00  0.00    +0.020 A 
ATOM     20  C   UNL     1      50.176  56.287  21.032  1.00  0.00    +0.012 A 
ATOM     21  C   UNL     1      47.970  56.762  20.192  1.00  0.00    +0.012 A 
ATOM     22  C   UNL     1      50.114  57.424  21.843  1.00  0.00    +0.001 A 
ATOM     23  C   UNL     1      47.907  57.901  21.002  1.00  0.00    +0.001 A 
ATOM     24  C   UNL     1      48.980  58.230  21.827  1.00  0.00    +0.000 A 
ENDBRANCH  17  19
ENDBRANCH  11  14
ENDBRANCH   4  10
TORSDOF 4
ENDMDL
MODEL 2
REMARK VINA RESULT:    -7.532      2.953      8.760
REMARK INTER + INTRA:          -9.760
REMARK INTER:                  -9.382
REMARK INTRA:                  -0.378
REMARK UNBOUND:                -0.467
REMARK SMILES CC(C)NC(=S)NNC(=O)c1cc(-c2ccccc2)on1
REMARK SMILES IDX 4 1 5 2 6 3 7 4 2 7 1 8 3 9 8 10 9 11 10 12 11 14 12 15
REMARK SMILES IDX 21 16 13 17 20 18 14 19 15 20 19 21 16 22 18 23 17 24
REMARK H PARENT 4 5 7 6 8 13
ROOT
ATOM      1  N   UNL     1      50.745  57.093  20.503  1.00  0.00    -0.359 N 
ATOM      2  C   UNL     1      50.070  56.180  19.760  1.00  0.00    +0.185 C 
ATOM      3  S   UNL     1      48.593  56.637  19.109  1.00  0.00    -0.039 S 
ATOM      4  N   UNL     1      50.657  54.964  19.554  1.00  0.00    -0.274 N 
ATOM      5  H   UNL     1      50.240  57.969  20.594  1.00  0.00    +0.163 HD
ATOM      6  H   UNL     1      51.396  54.646  20.178  1.00  0.00    +0.190 HD
ENDROOT
BRANCH   1   7
ATOM      7  C   UNL     1      52.030  57.035  21.204  1.00  0.00    +0.075 C 
ATOM      8  C   UNL     1      52.669  58.411  21.370  1.00  0.00    +0.030 C 
ATOM      9  C   UNL     1      51.962  56.258  22.516  1.00  0.00    +0.030 C 
ENDBRANCH   1   7
BRANCH   4  10
ATOM     10  N   UNL     1      49.925  53.909  18.967  1.00  0.00    -0.262 N 
ATOM     11  C   UNL     1      50.644  52.898  18.342  1.00  0.00    +0.291 C 
ATOM     12  O   UNL     1      51.856  53.012  18.149  1.00  0.00    -0.265 OA
ATOM     13  H   UNL     1      48.999  53.752  19.355  1.00  0.00    +0.191 HD
BRANCH  11  14
ATOM     14  C   UNL     1      49.859  51.721  17.957  1.00  0.00    +0.173 A 
ATOM     15  C   UNL     1      48.548  51.650  17.403  1.00  0.00    +0.088 A 
ATOM     16  N   UNL     1      50.360  50.483  18.104  1.00  0.00    -0.074 NA
ATOM     17  C   UNL     1      48.297  50.308  17.234  1.00  0.00    +0.167 A 
ATOM     18  O   UNL     1      49.389  49.614  17.657  1.00  0.00    -0.355 OA
BRANCH  17  19
ATOM     19  C   UNL     1      47.176  49.522  16.726  1.00  0.00    +0.020 A 
ATOM     20  C   UNL     1      47.196  48.973  15.434  1.00  0.00    +0.012 A 
ATOM     21  C   UNL     1      46.044  49.297  17.523  1.00  0.00    +0.012 A 
ATOM     22  C   UNL     1      46.118  48.221  14.955  1.00  0.00    +0.001 A 
ATOM     23  C   UNL     1      44.965  48.545  17.045  1.00  0.00    +0.001 A 
ATOM     24  C   UNL     1      45.004  48.008  15.762  1.00  0.00    +0.000 A 
ENDBRANCH  17  19
ENDBRANCH  11  14
ENDBRANCH   4  10
TORSDOF 4
ENDMDL
MODEL 3
REMARK VINA RESULT:    -7.409      4.233      6.349
REMARK INTER + INTRA:          -9.609
REMARK INTER:                  -9.271
REMARK INTRA:                  -0.338
REMARK UNBOUND:                -0.467
REMARK SMILES CC(C)NC(=S)NNC(=O)c1cc(-c2ccccc2)on1
REMARK SMILES IDX 4 1 5 2 6 3 7 4 2 7 1 8 3 9 8 10 9 11 10 12 11 14 12 15
REMARK SMILES IDX 21 16 13 17 20 18 14 19 15 20 19 21 16 22 18 23 17 24
REMARK H PARENT 4 5 7 6 8 13
ROOT
ATOM      1  N   UNL     1      50.594  52.179  18.187  1.00  0.00    -0.359 N 
ATOM      2  C   UNL     1      49.627  53.121  18.045  1.00  0.00    +0.185 C 
ATOM      3  S   UNL     1      48.419  52.840  16.917  1.00  0.00    -0.039 S 
ATOM      4  N   UNL     1      49.677  54.215  18.861  1.00  0.00    -0.274 N 
ATOM      5  H   UNL     1      50.472  51.398  17.550  1.00  0.00    +0.163 HD
ATOM      6  H   UNL     1      50.552  54.468  19.317  1.00  0.00    +0.190 HD
ENDROOT
BRANCH   1   7
ATOM      7  C   UNL     1      51.772  52.099  19.056  1.00  0.00    +0.075 C 
ATOM      8  C   UNL     1      52.255  50.667  19.259  1.00  0.00    +0.030 C 
ATOM      9  C   UNL     1      52.893  53.043  18.632  1.00  0.00    +0.030 C 
ENDBRANCH   1   7
BRANCH   4  10
ATOM     10  N   UNL     1      48.828  55.318  18.628  1.00  0.00    -0.262 N 
ATOM     11  C   UNL     1      48.770  56.303  19.605  1.00  0.00    +0.291 C 
ATOM     12  O   UNL     1      49.296  56.131  20.706  1.00  0.00    -0.265 OA
ATOM     13  H   UNL     1      48.626  55.515  17.651  1.00  0.00    +0.191 HD
BRANCH  11  14
ATOM     14  C   UNL     1      48.060  57.527  19.217  1.00  0.00    +0.173 A 
ATOM     15  C   UNL     1      47.534  58.565  20.037  1.00  0.00    +0.088 A 
ATOM     16  N   UNL     1      47.825  57.803  17.923  1.00  0.00    -0.074 NA
ATOM     17  C   UNL     1      46.971  59.468  19.165  1.00  0.00    +0.167 A 
ATOM     18  O   UNL     1      47.150  59.003  17.897  1.00  0.00    -0.355 OA
BRANCH  17  19
ATOM     19  C   UNL     1      46.269  60.741  19.304  1.00  0.00    +0.020 A 
ATOM     20  C   UNL     1      46.956  61.922  19.625  1.00  0.00    +0.012 A 
ATOM     21  C   UNL     1      44.880  60.812  19.119  1.00  0.00    +0.012 A 
ATOM     22  C   UNL     1      46.276  63.137  19.757  1.00  0.00    +0.001 A 
ATOM     23  C   UNL     1      44.199  62.027  19.250  1.00  0.00    +0.001 A 
ATOM     24  C   UNL     1      44.898  63.188  19.568  1.00  0.00    +0.000 A 
ENDBRANCH  17  19
ENDBRANCH  11  14
ENDBRANCH   4  10
TORSDOF 4
ENDMDL
MODEL 4
REMARK VINA RESULT:    -7.220      2.533      8.800
REMARK INTER + INTRA:          -9.376
REMARK INTER:                  -8.920
REMARK INTRA:                  -0.456
REMARK UNBOUND:                -0.467
REMARK SMILES CC(C)NC(=S)NNC(=O)c1cc(-c2ccccc2)on1
REMARK SMILES IDX 4 1 5 2 6 3 7 4 2 7 1 8 3 9 8 10 9 11 10 12 11 14 12 15
REMARK SMILES IDX 21 16 13 17 20 18 14 19 15 20 19 21 16 22 18 23 17 24
REMARK H PARENT 4 5 7 6 8 13
ROOT
ATOM      1  N   UNL     1      48.819  57.176  19.168  1.00  0.00    -0.359 N 
ATOM      2  C   UNL     1      48.635  56.182  18.262  1.00  0.00    +0.185 C 
ATOM      3  S   UNL     1      48.253  56.618  16.688  1.00  0.00    -0.039 S 
ATOM      4  N   UNL     1      48.815  54.895  18.681  1.00  0.00    -0.274 N 
ATOM      5  H   UNL     1      48.676  58.098  18.768  1.00  0.00    +0.163 HD
ATOM      6  H   UNL     1      48.772  54.674  19.674  1.00  0.00    +0.190 HD
ENDROOT
BRANCH   1   7
ATOM      7  C   UNL     1      49.154  57.158  20.594  1.00  0.00    +0.075 C 
ATOM      8  C   UNL     1      50.654  57.284  20.845  1.00  0.00    +0.030 C 
ATOM      9  C   UNL     1      48.337  58.152  21.414  1.00  0.00    +0.030 C 
ENDBRANCH   1   7
BRANCH   4  10
ATOM     10  N   UNL     1      48.443  53.816  17.849  1.00  0.00    -0.262 N 
ATOM     11  C   UNL     1      49.309  52.733  17.776  1.00  0.00    +0.291 C 
ATOM     12  O   UNL     1      50.437  52.792  18.270  1.00  0.00    -0.265 OA
ATOM     13  H   UNL     1      47.446  53.722  17.677  1.00  0.00    +0.191 HD
BRANCH  11  14
ATOM     14  C   UNL     1      48.775  51.552  17.090  1.00  0.00    +0.173 A 
ATOM     15  C   UNL     1      47.436  51.068  17.034  1.00  0.00    +0.088 A 
ATOM     16  N   UNL     1      49.582  50.746  16.381  1.00  0.00    -0.074 NA
ATOM     17  C   UNL     1      47.492  49.931  16.261  1.00  0.00    +0.167 A 
ATOM     18  O   UNL     1      48.784  49.744  15.872  1.00  0.00    -0.355 OA
BRANCH  17  19
ATOM     19  C   UNL     1      46.518  48.948  15.796  1.00  0.00    +0.020 A 
ATOM     20  C   UNL     1      45.469  48.513  16.621  1.00  0.00    +0.012 A 
ATOM     21  C   UNL     1      46.610  48.411  14.503  1.00  0.00    +0.012 A 
ATOM     22  C   UNL     1      44.541  47.571  16.167  1.00  0.00    +0.001 A 
ATOM     23  C   UNL     1      45.682  47.468  14.048  1.00  0.00    +0.001 A 
ATOM     24  C   UNL     1      44.647  47.050  14.881  1.00  0.00    +0.000 A 
ENDBRANCH  17  19
ENDBRANCH  11  14
ENDBRANCH   4  10
TORSDOF 4
ENDMDL
MODEL 5
REMARK VINA RESULT:    -7.178      5.495      8.770
REMARK INTER + INTRA:          -9.324
REMARK INTER:                  -8.943
REMARK INTRA:                  -0.381
REMARK UNBOUND:                -0.467
REMARK SMILES CC(C)NC(=S)NNC(=O)c1cc(-c2ccccc2)on1
REMARK SMILES IDX 4 1 5 2 6 3 7 4 2 7 1 8 3 9 8 10 9 11 10 12 11 14 12 15
REMARK SMILES IDX 21 16 13 17 20 18 14 19 15 20 19 21 16 22 18 23 17 24
REMARK H PARENT 4 5 7 6 8 13
ROOT
ATOM      1  N   UNL     1      46.114  60.306  18.290  1.00  0.00    -0.359 N 
ATOM      2  C   UNL     1      47.035  59.309  18.286  1.00  0.00    +0.185 C 
ATOM      3  S   UNL     1      47.190  58.393  16.890  1.00  0.00    -0.039 S 
ATOM      4  N   UNL     1      47.805  59.146  19.402  1.00  0.00    -0.274 N 
ATOM      5  H   UNL     1      45.597  60.361  17.419  1.00  0.00    +0.163 HD
ATOM      6  H   UNL     1      47.494  59.529  20.293  1.00  0.00    +0.190 HD
ENDROOT
BRANCH   1   7
ATOM      7  C   UNL     1      45.721  61.279  19.314  1.00  0.00    +0.075 C 
ATOM      8  C   UNL     1      46.713  62.432  19.437  1.00  0.00    +0.030 C 
ATOM      9  C   UNL     1      44.280  61.758  19.163  1.00  0.00    +0.030 C 
ENDBRANCH   1   7
BRANCH   4  10
ATOM     10  N   UNL     1      48.632  58.010  19.538  1.00  0.00    -0.262 N 
ATOM     11  C   UNL     1      48.938  57.588  20.826  1.00  0.00    +0.291 C 
ATOM     12  O   UNL     1      48.651  58.284  21.803  1.00  0.00    -0.265 OA
ATOM     13  H   UNL     1      48.629  57.371  18.748  1.00  0.00    +0.191 HD
BRANCH  11  14
ATOM     14  C   UNL     1      49.600  56.283  20.914  1.00  0.00    +0.173 A 
ATOM     15  C   UNL     1      49.281  55.061  20.255  1.00  0.00    +0.088 A 
ATOM     16  N   UNL     1      50.676  56.111  21.700  1.00  0.00    -0.074 NA
ATOM     17  C   UNL     1      50.219  54.155  20.694  1.00  0.00    +0.167 A 
ATOM     18  O   UNL     1      51.053  54.793  21.562  1.00  0.00    -0.355 OA
BRANCH  17  19
ATOM     19  C   UNL     1      50.491  52.744  20.439  1.00  0.00    +0.020 A 
ATOM     20  C   UNL     1      50.233  52.165  19.186  1.00  0.00    +0.012 A 
ATOM     21  C   UNL     1      51.022  51.926  21.449  1.00  0.00    +0.012 A 
ATOM     22  C   UNL     1      50.497  50.812  18.950  1.00  0.00    +0.001 A 
ATOM     23  C   UNL     1      51.287  50.573  21.214  1.00  0.00    +0.001 A 
ATOM     24  C   UNL     1      51.025  50.018  19.964  1.00  0.00    +0.000 A 
ENDBRANCH  17  19
ENDBRANCH  11  14
ENDBRANCH   4  10
TORSDOF 4
ENDMDL
