MODEL 1
REMARK VINA RESULT:    -9.626      0.000      0.000
REMARK INTER + INTRA:         -14.868
REMARK INTER:                 -14.128
REMARK INTRA:                  -0.740
REMARK UNBOUND:                -0.740
REMARK SMILES Cc1cccc(O[C@@H](C)C(=O)NNC(=O)[C@@H](NC(=O)c2ccc(F)cc2)C(C)C)c1C
REMARK SMILES IDX 10 1 11 2 12 3 8 5 9 6 7 7 6 8 2 9 3 10 30 11 4 12 5 13 1 14
REMARK SMILES IDX 31 15 13 16 14 17 15 18 16 20 27 21 28 22 29 23 17 24 18 25
REMARK SMILES IDX 19 26 20 28 21 29 26 30 22 31 25 32 23 33 24 34
REMARK H PARENT 12 4 13 19 17 27
ROOT
ATOM      1  C   UNL     1      49.560  49.936  17.369  1.00  0.00    +0.279 C 
ATOM      2  O   UNL     1      49.748  49.242  18.374  1.00  0.00    -0.269 OA
ATOM      3  N   UNL     1      49.939  51.274  17.357  1.00  0.00    -0.264 N 
ATOM      4  H   UNL     1      49.387  51.917  16.791  1.00  0.00    +0.191 HD
ENDROOT
BRANCH   1   5
ATOM      5  C   UNL     1      48.988  49.405  16.037  1.00  0.00    +0.260 C 
ATOM      6  C   UNL     1      49.934  49.678  14.868  1.00  0.00    +0.064 C 
BRANCH   5   7
ATOM      7  O   UNL     1      47.743  50.071  15.764  1.00  0.00    -0.481 OA
BRANCH   7   8
ATOM      8  C   UNL     1      46.669  49.317  16.166  1.00  0.00    +0.123 A 
ATOM      9  C   UNL     1      44.852  47.775  15.710  1.00  0.00    -0.045 A 
ATOM     10  C   UNL     1      44.510  47.820  17.075  1.00  0.00    +0.004 A 
ATOM     11  C   UNL     1      45.977  48.495  15.252  1.00  0.00    -0.006 A 
ATOM     12  C   UNL     1      45.252  48.584  17.975  1.00  0.00    +0.004 A 
ATOM     13  C   UNL     1      46.334  49.336  17.519  1.00  0.00    +0.047 A 
ATOM     14  C   UNL     1      44.022  46.925  14.789  1.00  0.00    +0.045 C 
ATOM     15  C   UNL     1      46.430  48.422  13.821  1.00  0.00    +0.049 C 
ENDBRANCH   7   8
ENDBRANCH   5   7
ENDBRANCH   1   5
BRANCH   3  16
ATOM     16  N   UNL     1      50.275  51.822  18.628  1.00  0.00    -0.266 N 
ATOM     17  C   UNL     1      51.591  52.227  18.775  1.00  0.00    +0.261 C 
ATOM     18  O   UNL     1      52.473  51.871  17.989  1.00  0.00    -0.271 OA
ATOM     19  H   UNL     1      49.534  52.405  19.021  1.00  0.00    +0.191 HD
BRANCH  17  20
ATOM     20  C   UNL     1      51.865  53.154  19.978  1.00  0.00    +0.176 C 
BRANCH  20  21
ATOM     21  C   UNL     1      51.974  52.370  21.307  1.00  0.00    +0.015 C 
ATOM     22  C   UNL     1      50.668  52.444  22.105  1.00  0.00    +0.010 C 
ATOM     23  C   UNL     1      52.371  50.902  21.097  1.00  0.00    +0.010 C 
ENDBRANCH  20  21
BRANCH  20  24
ATOM     24  N   UNL     1      50.795  54.156  20.021  1.00  0.00    -0.340 N 
ATOM     25  C   UNL     1      51.005  55.431  20.502  1.00  0.00    +0.251 C 
ATOM     26  O   UNL     1      52.067  55.810  20.984  1.00  0.00    -0.269 OA
ATOM     27  H   UNL     1      50.045  54.017  19.351  1.00  0.00    +0.164 HD
BRANCH  25  28
ATOM     28  C   UNL     1      49.858  56.382  20.378  1.00  0.00    +0.040 A 
ATOM     29  C   UNL     1      49.582  57.245  21.452  1.00  0.00    +0.017 A 
ATOM     30  C   UNL     1      49.031  56.405  19.243  1.00  0.00    +0.017 A 
ATOM     31  C   UNL     1      48.504  58.136  21.383  1.00  0.00    +0.040 A 
ATOM     32  C   UNL     1      47.956  57.298  19.177  1.00  0.00    +0.040 A 
ATOM     33  C   UNL     1      47.704  58.154  20.246  1.00  0.00    +0.123 A 
ATOM     34  F   UNL     1      46.666  58.999  20.178  1.00  0.00    -0.207 F 
ENDBRANCH  25  28
ENDBRANCH  20  24
ENDBRANCH  17  20
ENDBRANCH   3  16
TORSDOF 8
ENDMDL
MODEL 2
REMARK VINA RESULT:    -9.484      1.623      2.921
REMARK INTER + INTRA:         -14.660
REMARK INTER:                 -13.391
REMARK INTRA:                  -1.268
REMARK UNBOUND:                -0.740
REMARK SMILES Cc1cccc(O[C@@H](C)C(=O)NNC(=O)[C@@H](NC(=O)c2ccc(F)cc2)C(C)C)c1C
REMARK SMILES IDX 10 1 11 2 12 3 8 5 9 6 7 7 6 8 2 9 3 10 30 11 4 12 5 13 1 14
REMARK SMILES IDX 31 15 13 16 14 17 15 18 16 20 27 21 28 22 29 23 17 24 18 25
REMARK SMILES IDX 19 26 20 28 21 29 26 30 22 31 25 32 23 33 24 34
REMARK H PARENT 12 4 13 19 17 27
ROOT
ATOM      1  C   UNL     1      47.680  48.821  17.836  1.00  0.00    +0.279 C 
ATOM      2  O   UNL     1      47.814  48.751  19.062  1.00  0.00    -0.269 OA
ATOM      3  N   UNL     1      48.762  49.152  17.026  1.00  0.00    -0.264 N 
ATOM      4  H   UNL     1      48.569  49.660  16.165  1.00  0.00    +0.191 HD
ENDROOT
BRANCH   1   5
ATOM      5  C   UNL     1      46.377  48.480  17.081  1.00  0.00    +0.260 C 
ATOM      6  C   UNL     1      45.216  48.232  18.043  1.00  0.00    +0.064 C 
BRANCH   5   7
ATOM      7  O   UNL     1      46.580  47.281  16.314  1.00  0.00    -0.481 OA
BRANCH   7   8
ATOM      8  C   UNL     1      46.103  47.414  15.034  1.00  0.00    +0.123 A 
ATOM      9  C   UNL     1      44.658  46.724  13.212  1.00  0.00    -0.045 A 
ATOM     10  C   UNL     1      45.196  47.764  12.430  1.00  0.00    +0.004 A 
ATOM     11  C   UNL     1      45.080  46.573  14.550  1.00  0.00    -0.006 A 
ATOM     12  C   UNL     1      46.158  48.629  12.951  1.00  0.00    +0.004 A 
ATOM     13  C   UNL     1      46.614  48.453  14.257  1.00  0.00    +0.047 A 
ATOM     14  C   UNL     1      43.617  45.830  12.599  1.00  0.00    +0.045 C 
ATOM     15  C   UNL     1      44.482  45.529  15.451  1.00  0.00    +0.049 C 
ENDBRANCH   7   8
ENDBRANCH   5   7
ENDBRANCH   1   5
BRANCH   3  16
ATOM     16  N   UNL     1      49.900  49.662  17.714  1.00  0.00    -0.266 N 
ATOM     17  C   UNL     1      49.958  51.041  17.834  1.00  0.00    +0.261 C 
ATOM     18  O   UNL     1      49.249  51.784  17.148  1.00  0.00    -0.271 OA
ATOM     19  H   UNL     1      50.177  49.088  18.512  1.00  0.00    +0.191 HD
BRANCH  17  20
ATOM     20  C   UNL     1      50.956  51.571  18.885  1.00  0.00    +0.176 C 
BRANCH  20  21
ATOM     21  C   UNL     1      51.341  50.490  19.922  1.00  0.00    +0.015 C 
ATOM     22  C   UNL     1      52.785  50.018  19.723  1.00  0.00    +0.010 C 
ATOM     23  C   UNL     1      51.145  50.963  21.370  1.00  0.00    +0.010 C 
ENDBRANCH  20  21
BRANCH  20  24
ATOM     24  N   UNL     1      50.351  52.747  19.519  1.00  0.00    -0.340 N 
ATOM     25  C   UNL     1      50.871  54.014  19.358  1.00  0.00    +0.251 C 
ATOM     26  O   UNL     1      51.899  54.253  18.736  1.00  0.00    -0.269 OA
ATOM     27  H   UNL     1      49.363  52.661  19.736  1.00  0.00    +0.164 HD
BRANCH  25  28
ATOM     28  C   UNL     1      50.087  55.132  19.966  1.00  0.00    +0.040 A 
ATOM     29  C   UNL     1      48.762  55.331  19.542  1.00  0.00    +0.017 A 
ATOM     30  C   UNL     1      50.649  56.005  20.913  1.00  0.00    +0.017 A 
ATOM     31  C   UNL     1      48.001  56.379  20.073  1.00  0.00    +0.040 A 
ATOM     32  C   UNL     1      49.884  57.050  21.442  1.00  0.00    +0.040 A 
ATOM     33  C   UNL     1      48.569  57.226  21.018  1.00  0.00    +0.123 A 
ATOM     34  F   UNL     1      47.848  58.236  21.524  1.00  0.00    -0.207 F 
ENDBRANCH  25  28
ENDBRANCH  20  24
ENDBRANCH  17  20
ENDBRANCH   3  16
TORSDOF 8
ENDMDL
MODEL 3
REMARK VINA RESULT:    -8.970      2.591      4.236
REMARK INTER + INTRA:         -13.905
REMARK INTER:                 -12.918
REMARK INTRA:                  -0.987
REMARK UNBOUND:                -0.740
REMARK SMILES Cc1cccc(O[C@@H](C)C(=O)NNC(=O)[C@@H](NC(=O)c2ccc(F)cc2)C(C)C)c1C
REMARK SMILES IDX 10 1 11 2 12 3 8 5 9 6 7 7 6 8 2 9 3 10 30 11 4 12 5 13 1 14
REMARK SMILES IDX 31 15 13 16 14 17 15 18 16 20 27 21 28 22 29 23 17 24 18 25
REMARK SMILES IDX 19 26 20 28 21 29 26 30 22 31 25 32 23 33 24 34
REMARK H PARENT 12 4 13 19 17 27
ROOT
ATOM      1  C   UNL     1      49.913  51.380  18.894  1.00  0.00    +0.279 C 
ATOM      2  O   UNL     1      50.332  52.163  19.754  1.00  0.00    -0.269 OA
ATOM      3  N   UNL     1      49.588  51.840  17.622  1.00  0.00    -0.264 N 
ATOM      4  H   UNL     1      48.841  51.360  17.122  1.00  0.00    +0.191 HD
ENDROOT
BRANCH   1   5
ATOM      5  C   UNL     1      49.787  49.854  19.091  1.00  0.00    +0.260 C 
ATOM      6  C   UNL     1      51.032  49.267  19.755  1.00  0.00    +0.064 C 
BRANCH   5   7
ATOM      7  O   UNL     1      49.632  49.228  17.806  1.00  0.00    -0.481 OA
BRANCH   7   8
ATOM      8  C   UNL     1      48.333  48.847  17.584  1.00  0.00    +0.123 A 
ATOM      9  C   UNL     1      46.490  48.307  16.100  1.00  0.00    -0.045 A 
ATOM     10  C   UNL     1      45.687  48.068  17.231  1.00  0.00    +0.004 A 
ATOM     11  C   UNL     1      47.848  48.655  16.273  1.00  0.00    -0.006 A 
ATOM     12  C   UNL     1      46.207  48.196  18.519  1.00  0.00    +0.004 A 
ATOM     13  C   UNL     1      47.534  48.588  18.697  1.00  0.00    +0.047 A 
ATOM     14  C   UNL     1      45.878  48.144  14.737  1.00  0.00    +0.045 C 
ATOM     15  C   UNL     1      48.767  48.846  15.100  1.00  0.00    +0.049 C 
ENDBRANCH   7   8
ENDBRANCH   5   7
ENDBRANCH   1   5
BRANCH   3  16
ATOM     16  N   UNL     1      49.505  53.256  17.490  1.00  0.00    -0.266 N 
ATOM     17  C   UNL     1      48.310  53.740  16.984  1.00  0.00    +0.261 C 
ATOM     18  O   UNL     1      47.501  53.004  16.411  1.00  0.00    -0.271 OA
ATOM     19  H   UNL     1      49.950  53.756  18.261  1.00  0.00    +0.191 HD
BRANCH  17  20
ATOM     20  C   UNL     1      48.067  55.249  17.196  1.00  0.00    +0.176 C 
BRANCH  20  21
ATOM     21  C   UNL     1      47.986  56.022  15.859  1.00  0.00    +0.015 C 
ATOM     22  C   UNL     1      46.717  55.657  15.082  1.00  0.00    +0.010 C 
ATOM     23  C   UNL     1      48.057  57.544  16.050  1.00  0.00    +0.010 C 
ENDBRANCH  20  21
BRANCH  20  24
ATOM     24  N   UNL     1      49.140  55.757  18.057  1.00  0.00    -0.340 N 
ATOM     25  C   UNL     1      48.939  56.032  19.393  1.00  0.00    +0.251 C 
ATOM     26  O   UNL     1      47.851  55.939  19.950  1.00  0.00    -0.269 OA
ATOM     27  H   UNL     1      50.082  55.527  17.754  1.00  0.00    +0.164 HD
BRANCH  25  28
ATOM     28  C   UNL     1      50.149  56.432  20.175  1.00  0.00    +0.040 A 
ATOM     29  C   UNL     1      51.415  56.255  19.590  1.00  0.00    +0.017 A 
ATOM     30  C   UNL     1      50.055  56.938  21.482  1.00  0.00    +0.017 A 
ATOM     31  C   UNL     1      52.572  56.599  20.297  1.00  0.00    +0.040 A 
ATOM     32  C   UNL     1      51.215  57.282  22.184  1.00  0.00    +0.040 A 
ATOM     33  C   UNL     1      52.461  57.111  21.585  1.00  0.00    +0.123 A 
ATOM     34  F   UNL     1      53.566  57.433  22.270  1.00  0.00    -0.207 F 
ENDBRANCH  25  28
ENDBRANCH  20  24
ENDBRANCH  17  20
ENDBRANCH   3  16
TORSDOF 8
ENDMDL
MODEL 4
REMARK VINA RESULT:    -8.719      2.681      4.215
REMARK INTER + INTRA:         -13.537
REMARK INTER:                 -12.558
REMARK INTRA:                  -0.979
REMARK UNBOUND:                -0.740
REMARK SMILES Cc1cccc(O[C@@H](C)C(=O)NNC(=O)[C@@H](NC(=O)c2ccc(F)cc2)C(C)C)c1C
REMARK SMILES IDX 10 1 11 2 12 3 8 5 9 6 7 7 6 8 2 9 3 10 30 11 4 12 5 13 1 14
REMARK SMILES IDX 31 15 13 16 14 17 15 18 16 20 27 21 28 22 29 23 17 24 18 25
REMARK SMILES IDX 19 26 20 28 21 29 26 30 22 31 25 32 23 33 24 34
REMARK H PARENT 12 4 13 19 17 27
ROOT
ATOM      1  C   UNL     1      50.188  52.115  18.531  1.00  0.00    +0.279 C 
ATOM      2  O   UNL     1      51.350  52.518  18.410  1.00  0.00    -0.269 OA
ATOM      3  N   UNL     1      49.119  52.994  18.388  1.00  0.00    -0.264 N 
ATOM      4  H   UNL     1      48.278  52.808  18.931  1.00  0.00    +0.191 HD
ENDROOT
BRANCH   1   5
ATOM      5  C   UNL     1      49.797  50.639  18.760  1.00  0.00    +0.260 C 
ATOM      6  C   UNL     1      50.790  49.928  19.679  1.00  0.00    +0.064 C 
BRANCH   5   7
ATOM      7  O   UNL     1      49.796  49.954  17.496  1.00  0.00    -0.481 OA
BRANCH   7   8
ATOM      8  C   UNL     1      48.553  49.454  17.195  1.00  0.00    +0.123 A 
ATOM      9  C   UNL     1      46.917  48.611  15.615  1.00  0.00    -0.045 A 
ATOM     10  C   UNL     1      46.015  48.442  16.682  1.00  0.00    +0.004 A 
ATOM     11  C   UNL     1      48.223  49.078  15.876  1.00  0.00    -0.006 A 
ATOM     12  C   UNL     1      46.387  48.754  17.990  1.00  0.00    +0.004 A 
ATOM     13  C   UNL     1      47.659  49.263  18.248  1.00  0.00    +0.047 A 
ATOM     14  C   UNL     1      46.464  48.247  14.228  1.00  0.00    +0.045 C 
ATOM     15  C   UNL     1      49.248  49.203  14.784  1.00  0.00    +0.049 C 
ENDBRANCH   7   8
ENDBRANCH   5   7
ENDBRANCH   1   5
BRANCH   3  16
ATOM     16  N   UNL     1      49.466  54.376  18.380  1.00  0.00    -0.266 N 
ATOM     17  C   UNL     1      48.792  55.165  19.297  1.00  0.00    +0.261 C 
ATOM     18  O   UNL     1      47.767  54.774  19.863  1.00  0.00    -0.271 OA
ATOM     19  H   UNL     1      50.463  54.537  18.232  1.00  0.00    +0.191 HD
BRANCH  17  20
ATOM     20  C   UNL     1      49.419  56.550  19.562  1.00  0.00    +0.176 C 
BRANCH  20  21
ATOM     21  C   UNL     1      49.719  56.779  21.062  1.00  0.00    +0.015 C 
ATOM     22  C   UNL     1      51.211  57.036  21.297  1.00  0.00    +0.010 C 
ATOM     23  C   UNL     1      48.894  57.926  21.662  1.00  0.00    +0.010 C 
ENDBRANCH  20  21
BRANCH  20  24
ATOM     24  N   UNL     1      48.503  57.563  19.027  1.00  0.00    -0.340 N 
ATOM     25  C   UNL     1      48.095  57.559  17.710  1.00  0.00    +0.251 C 
ATOM     26  O   UNL     1      48.505  56.762  16.874  1.00  0.00    -0.269 OA
ATOM     27  H   UNL     1      47.896  58.002  19.713  1.00  0.00    +0.164 HD
BRANCH  25  28
ATOM     28  C   UNL     1      47.071  58.580  17.332  1.00  0.00    +0.040 A 
ATOM     29  C   UNL     1      46.327  58.382  16.156  1.00  0.00    +0.017 A 
ATOM     30  C   UNL     1      46.863  59.742  18.094  1.00  0.00    +0.017 A 
ATOM     31  C   UNL     1      45.372  59.325  15.759  1.00  0.00    +0.040 A 
ATOM     32  C   UNL     1      45.907  60.681  17.694  1.00  0.00    +0.040 A 
ATOM     33  C   UNL     1      45.170  60.463  16.531  1.00  0.00    +0.123 A 
ATOM     34  F   UNL     1      44.264  61.373  16.151  1.00  0.00    -0.207 F 
ENDBRANCH  25  28
ENDBRANCH  20  24
ENDBRANCH  17  20
ENDBRANCH   3  16
TORSDOF 8
ENDMDL
MODEL 5
REMARK VINA RESULT:    -8.461      5.051     10.353
REMARK INTER + INTRA:         -13.158
REMARK INTER:                 -12.351
REMARK INTRA:                  -0.807
REMARK UNBOUND:                -0.740
REMARK SMILES Cc1cccc(O[C@@H](C)C(=O)NNC(=O)[C@@H](NC(=O)c2ccc(F)cc2)C(C)C)c1C
REMARK SMILES IDX 10 1 11 2 12 3 8 5 9 6 7 7 6 8 2 9 3 10 30 11 4 12 5 13 1 14
REMARK SMILES IDX 31 15 13 16 14 17 15 18 16 20 27 21 28 22 29 23 17 24 18 25
REMARK SMILES IDX 19 26 20 28 21 29 26 30 22 31 25 32 23 33 24 34
REMARK H PARENT 12 4 13 19 17 27
ROOT
ATOM      1  C   UNL     1      47.375  59.787  18.772  1.00  0.00    +0.279 C 
ATOM      2  O   UNL     1      48.445  59.951  18.176  1.00  0.00    -0.269 OA
ATOM      3  N   UNL     1      47.254  58.799  19.744  1.00  0.00    -0.264 N 
ATOM      4  H   UNL     1      46.342  58.361  19.862  1.00  0.00    +0.191 HD
ENDROOT
BRANCH   1   5
ATOM      5  C   UNL     1      46.126  60.674  18.580  1.00  0.00    +0.260 C 
ATOM      6  C   UNL     1      45.604  60.611  17.145  1.00  0.00    +0.064 C 
BRANCH   5   7
ATOM      7  O   UNL     1      46.474  62.040  18.865  1.00  0.00    -0.481 OA
BRANCH   7   8
ATOM      8  C   UNL     1      45.387  62.871  18.756  1.00  0.00    +0.123 A 
ATOM      9  C   UNL     1      44.302  64.867  17.906  1.00  0.00    -0.045 A 
ATOM     10  C   UNL     1      43.132  64.489  18.592  1.00  0.00    +0.004 A 
ATOM     11  C   UNL     1      45.434  64.024  17.947  1.00  0.00    -0.006 A 
ATOM     12  C   UNL     1      43.086  63.306  19.331  1.00  0.00    +0.004 A 
ATOM     13  C   UNL     1      44.216  62.495  19.414  1.00  0.00    +0.047 A 
ATOM     14  C   UNL     1      44.289  66.147  17.118  1.00  0.00    +0.045 C 
ATOM     15  C   UNL     1      46.681  64.343  17.171  1.00  0.00    +0.049 C 
ENDBRANCH   7   8
ENDBRANCH   5   7
ENDBRANCH   1   5
BRANCH   3  16
ATOM     16  N   UNL     1      48.319  57.854  19.784  1.00  0.00    -0.266 N 
ATOM     17  C   UNL     1      48.883  57.643  21.031  1.00  0.00    +0.261 C 
ATOM     18  O   UNL     1      48.692  58.419  21.972  1.00  0.00    -0.271 OA
ATOM     19  H   UNL     1      48.166  57.051  19.172  1.00  0.00    +0.191 HD
BRANCH  17  20
ATOM     20  C   UNL     1      49.750  56.372  21.157  1.00  0.00    +0.176 C 
BRANCH  20  21
ATOM     21  C   UNL     1      51.251  56.703  21.322  1.00  0.00    +0.015 C 
ATOM     22  C   UNL     1      51.859  55.949  22.509  1.00  0.00    +0.010 C 
ATOM     23  C   UNL     1      52.064  56.412  20.052  1.00  0.00    +0.010 C 
ENDBRANCH  20  21
BRANCH  20  24
ATOM     24  N   UNL     1      49.499  55.543  19.973  1.00  0.00    -0.340 N 
ATOM     25  C   UNL     1      49.636  54.172  19.997  1.00  0.00    +0.251 C 
ATOM     26  O   UNL     1      50.032  53.544  20.973  1.00  0.00    -0.269 OA
ATOM     27  H   UNL     1      48.868  55.947  19.288  1.00  0.00    +0.164 HD
BRANCH  25  28
ATOM     28  C   UNL     1      49.237  53.446  18.753  1.00  0.00    +0.040 A 
ATOM     29  C   UNL     1      49.791  52.178  18.507  1.00  0.00    +0.017 A 
ATOM     30  C   UNL     1      48.361  54.011  17.811  1.00  0.00    +0.017 A 
ATOM     31  C   UNL     1      49.458  51.475  17.344  1.00  0.00    +0.040 A 
ATOM     32  C   UNL     1      48.029  53.304  16.650  1.00  0.00    +0.040 A 
ATOM     33  C   UNL     1      48.579  52.044  16.429  1.00  0.00    +0.123 A 
ATOM     34  F   UNL     1      48.263  51.379  15.309  1.00  0.00    -0.207 F 
ENDBRANCH  25  28
ENDBRANCH  20  24
ENDBRANCH  17  20
ENDBRANCH   3  16
TORSDOF 8
ENDMDL
