MODEL 1
REMARK VINA RESULT:    -8.507      0.000      0.000
REMARK INTER + INTRA:         -11.159
REMARK INTER:                 -10.745
REMARK INTRA:                  -0.415
REMARK UNBOUND:                -0.415
REMARK SMILES [NH3+]/C(=C/CN1C(=O)c2ccccc2C1=O)NNC=O
REMARK SMILES IDX 3 1 2 2 4 3 5 4 10 5 11 6 9 7 12 8 8 9 13 10 6 11 14 12 7 13
REMARK SMILES IDX 15 14 1 15 16 19 17 21 18 22 19 23
REMARK H PARENT 1 16 1 17 1 18 16 20 17 24
ROOT
ATOM      1  C   UNL     1      51.340  52.080  21.431  1.00  0.00    +0.084 C 
ATOM      2  C   UNL     1      51.654  50.809  21.152  1.00  0.00    +0.212 C 
ENDROOT
BRANCH   1   3
ATOM      3  C   UNL     1      52.005  53.289  20.834  1.00  0.00    +0.165 C 
BRANCH   3   4
ATOM      4  N   UNL     1      51.091  54.405  20.868  1.00  0.00    -0.270 N 
ATOM      5  C   UNL     1      47.788  57.562  20.497  1.00  0.00    +0.001 A 
ATOM      6  C   UNL     1      48.582  58.191  21.480  1.00  0.00    +0.001 A 
ATOM      7  C   UNL     1      48.157  56.326  19.958  1.00  0.00    +0.015 A 
ATOM      8  C   UNL     1      49.760  57.596  21.944  1.00  0.00    +0.015 A 
ATOM      9  C   UNL     1      49.321  55.757  20.434  1.00  0.00    +0.053 A 
ATOM     10  C   UNL     1      50.100  56.374  21.399  1.00  0.00    +0.053 A 
ATOM     11  C   UNL     1      49.981  54.502  20.076  1.00  0.00    +0.261 C 
ATOM     12  C   UNL     1      51.253  55.510  21.657  1.00  0.00    +0.261 C 
ATOM     13  O   UNL     1      49.635  53.730  19.199  1.00  0.00    -0.269 OA
ATOM     14  O   UNL     1      52.175  55.771  22.404  1.00  0.00    -0.269 OA
ENDBRANCH   3   4
ENDBRANCH   1   3
BRANCH   2  15
ATOM     15  N   UNL     1      50.881  49.823  21.773  1.00  0.00    -0.309 N 
ATOM     16  H   UNL     1      51.479  49.194  22.313  1.00  0.00    +0.351 HD
ATOM     17  H   UNL     1      50.267  49.272  21.171  1.00  0.00    +0.351 HD
ATOM     18  H   UNL     1      50.283  50.292  22.485  1.00  0.00    +0.351 HD
ENDBRANCH   2  15
BRANCH   2  19
ATOM     19  N   UNL     1      52.684  50.360  20.361  1.00  0.00    -0.253 N 
ATOM     20  H   UNL     1      53.451  49.911  20.893  1.00  0.00    +0.193 HD
BRANCH  19  21
ATOM     21  N   UNL     1      52.578  49.862  19.034  1.00  0.00    -0.268 N 
ATOM     22  C   UNL     1      52.384  50.754  17.994  1.00  0.00    +0.357 C 
ATOM     23  O   UNL     1      52.779  51.917  18.002  1.00  0.00    -0.277 OA
ATOM     24  H   UNL     1      52.090  48.966  18.974  1.00  0.00    +0.191 HD
ENDBRANCH  19  21
ENDBRANCH   2  19
TORSDOF 5
ENDMDL
MODEL 2
REMARK VINA RESULT:    -8.429      0.227      2.013
REMARK INTER + INTRA:         -11.061
REMARK INTER:                 -10.582
REMARK INTRA:                  -0.479
REMARK UNBOUND:                -0.415
REMARK SMILES [NH3+]/C(=C/CN1C(=O)c2ccccc2C1=O)NNC=O
REMARK SMILES IDX 3 1 2 2 4 3 5 4 10 5 11 6 9 7 12 8 8 9 13 10 6 11 14 12 7 13
REMARK SMILES IDX 15 14 1 15 16 19 17 21 18 22 19 23
REMARK H PARENT 1 16 1 17 1 18 16 20 17 24
ROOT
ATOM      1  C   UNL     1      51.466  52.240  21.300  1.00  0.00    +0.084 C 
ATOM      2  C   UNL     1      51.788  50.973  21.009  1.00  0.00    +0.212 C 
ENDROOT
BRANCH   1   3
ATOM      3  C   UNL     1      52.025  53.456  20.615  1.00  0.00    +0.165 C 
BRANCH   3   4
ATOM      4  N   UNL     1      51.086  54.545  20.732  1.00  0.00    -0.270 N 
ATOM      5  C   UNL     1      48.573  58.281  21.592  1.00  0.00    +0.001 A 
ATOM      6  C   UNL     1      47.772  57.707  20.582  1.00  0.00    +0.001 A 
ATOM      7  C   UNL     1      49.749  57.657  22.018  1.00  0.00    +0.015 A 
ATOM      8  C   UNL     1      48.130  56.497  19.979  1.00  0.00    +0.015 A 
ATOM      9  C   UNL     1      50.084  56.467  21.406  1.00  0.00    +0.053 A 
ATOM     10  C   UNL     1      49.297  55.902  20.414  1.00  0.00    +0.053 A 
ATOM     11  C   UNL     1      51.219  55.572  21.624  1.00  0.00    +0.261 C 
ATOM     12  C   UNL     1      49.935  54.652  20.001  1.00  0.00    +0.261 C 
ATOM     13  O   UNL     1      52.079  55.693  22.480  1.00  0.00    -0.269 OA
ATOM     14  O   UNL     1      49.483  53.865  19.192  1.00  0.00    -0.269 OA
ENDBRANCH   3   4
ENDBRANCH   1   3
BRANCH   2  15
ATOM     15  N   UNL     1      51.117  49.977  21.725  1.00  0.00    -0.309 N 
ATOM     16  H   UNL     1      50.231  50.339  22.085  1.00  0.00    +0.351 HD
ATOM     17  H   UNL     1      51.633  49.528  22.483  1.00  0.00    +0.351 HD
ATOM     18  H   UNL     1      50.841  49.234  21.050  1.00  0.00    +0.351 HD
ENDBRANCH   2  15
BRANCH   2  19
ATOM     19  N   UNL     1      52.739  50.540  20.117  1.00  0.00    -0.253 N 
ATOM     20  H   UNL     1      53.554  50.085  20.568  1.00  0.00    +0.193 HD
BRANCH  19  21
ATOM     21  N   UNL     1      52.510  50.062  18.798  1.00  0.00    -0.268 N 
ATOM     22  C   UNL     1      52.427  50.971  17.758  1.00  0.00    +0.357 C 
ATOM     23  O   UNL     1      53.005  52.055  17.744  1.00  0.00    -0.277 OA
ATOM     24  H   UNL     1      51.881  49.256  18.761  1.00  0.00    +0.191 HD
ENDBRANCH  19  21
ENDBRANCH   2  19
TORSDOF 5
ENDMDL
MODEL 3
REMARK VINA RESULT:    -8.235      1.574      2.554
REMARK INTER + INTRA:         -10.817
REMARK INTER:                  -9.664
REMARK INTRA:                  -1.153
REMARK UNBOUND:                -0.415
REMARK SMILES [NH3+]/C(=C/CN1C(=O)c2ccccc2C1=O)NNC=O
REMARK SMILES IDX 3 1 2 2 4 3 5 4 10 5 11 6 9 7 12 8 8 9 13 10 6 11 14 12 7 13
REMARK SMILES IDX 15 14 1 15 16 19 17 21 18 22 19 23
REMARK H PARENT 1 16 1 17 1 18 16 20 17 24
ROOT
ATOM      1  C   UNL     1      51.991  52.208  21.049  1.00  0.00    +0.084 C 
ATOM      2  C   UNL     1      51.481  51.072  20.556  1.00  0.00    +0.212 C 
ENDROOT
BRANCH   1   3
ATOM      3  C   UNL     1      52.341  53.425  20.238  1.00  0.00    +0.165 C 
BRANCH   3   4
ATOM      4  N   UNL     1      51.325  54.432  20.424  1.00  0.00    -0.270 N 
ATOM      5  C   UNL     1      48.578  57.950  21.468  1.00  0.00    +0.001 A 
ATOM      6  C   UNL     1      47.755  57.305  20.521  1.00  0.00    +0.001 A 
ATOM      7  C   UNL     1      49.830  57.429  21.806  1.00  0.00    +0.015 A 
ATOM      8  C   UNL     1      48.169  56.126  19.892  1.00  0.00    +0.015 A 
ATOM      9  C   UNL     1      50.218  56.267  21.171  1.00  0.00    +0.053 A 
ATOM     10  C   UNL     1      49.410  55.633  20.240  1.00  0.00    +0.053 A 
ATOM     11  C   UNL     1      51.438  55.472  21.305  1.00  0.00    +0.261 C 
ATOM     12  C   UNL     1      50.118  54.438  19.781  1.00  0.00    +0.261 C 
ATOM     13  O   UNL     1      52.344  55.669  22.095  1.00  0.00    -0.269 OA
ATOM     14  O   UNL     1      49.676  53.611  19.007  1.00  0.00    -0.269 OA
ENDBRANCH   3   4
ENDBRANCH   1   3
BRANCH   2  15
ATOM     15  N   UNL     1      51.173  50.071  21.482  1.00  0.00    -0.309 N 
ATOM     16  H   UNL     1      50.173  50.090  21.701  1.00  0.00    +0.351 HD
ATOM     17  H   UNL     1      51.709  50.066  22.351  1.00  0.00    +0.351 HD
ATOM     18  H   UNL     1      51.321  49.152  21.016  1.00  0.00    +0.351 HD
ENDBRANCH   2  15
BRANCH   2  19
ATOM     19  N   UNL     1      51.270  50.759  19.235  1.00  0.00    -0.253 N 
ATOM     20  H   UNL     1      51.917  50.036  18.871  1.00  0.00    +0.193 HD
BRANCH  19  21
ATOM     21  N   UNL     1      50.024  50.768  18.550  1.00  0.00    -0.268 N 
ATOM     22  C   UNL     1      49.352  49.573  18.361  1.00  0.00    +0.357 C 
ATOM     23  O   UNL     1      49.437  48.609  19.117  1.00  0.00    -0.277 OA
ATOM     24  H   UNL     1      49.984  51.449  17.788  1.00  0.00    +0.191 HD
ENDBRANCH  19  21
ENDBRANCH   2  19
TORSDOF 5
ENDMDL
MODEL 4
REMARK VINA RESULT:    -8.110      1.753      2.279
REMARK INTER + INTRA:         -10.659
REMARK INTER:                  -9.731
REMARK INTRA:                  -0.928
REMARK UNBOUND:                -0.415
REMARK SMILES [NH3+]/C(=C/CN1C(=O)c2ccccc2C1=O)NNC=O
REMARK SMILES IDX 3 1 2 2 4 3 5 4 10 5 11 6 9 7 12 8 8 9 13 10 6 11 14 12 7 13
REMARK SMILES IDX 15 14 1 15 16 19 17 21 18 22 19 23
REMARK H PARENT 1 16 1 17 1 18 16 20 17 24
ROOT
ATOM      1  C   UNL     1      52.533  52.841  19.510  1.00  0.00    +0.084 C 
ATOM      2  C   UNL     1      52.282  52.116  18.412  1.00  0.00    +0.212 C 
ENDROOT
BRANCH   1   3
ATOM      3  C   UNL     1      51.704  52.830  20.764  1.00  0.00    +0.165 C 
BRANCH   3   4
ATOM      4  N   UNL     1      50.920  54.040  20.830  1.00  0.00    -0.270 N 
ATOM      5  C   UNL     1      47.971  57.540  20.577  1.00  0.00    +0.001 A 
ATOM      6  C   UNL     1      48.870  58.080  21.523  1.00  0.00    +0.001 A 
ATOM      7  C   UNL     1      48.179  56.271  20.031  1.00  0.00    +0.015 A 
ATOM      8  C   UNL     1      49.994  57.360  21.941  1.00  0.00    +0.015 A 
ATOM      9  C   UNL     1      49.292  55.578  20.461  1.00  0.00    +0.053 A 
ATOM     10  C   UNL     1      50.175  56.107  21.390  1.00  0.00    +0.053 A 
ATOM     11  C   UNL     1      49.795  54.257  20.084  1.00  0.00    +0.261 C 
ATOM     12  C   UNL     1      51.235  55.121  21.605  1.00  0.00    +0.261 C 
ATOM     13  O   UNL     1      49.330  53.527  19.227  1.00  0.00    -0.269 OA
ATOM     14  O   UNL     1      52.211  55.280  22.311  1.00  0.00    -0.269 OA
ENDBRANCH   3   4
ENDBRANCH   1   3
BRANCH   2  15
ATOM     15  N   UNL     1      53.204  52.225  17.366  1.00  0.00    -0.309 N 
ATOM     16  H   UNL     1      52.945  51.597  16.602  1.00  0.00    +0.351 HD
ATOM     17  H   UNL     1      54.188  52.085  17.602  1.00  0.00    +0.351 HD
ATOM     18  H   UNL     1      53.112  53.181  16.963  1.00  0.00    +0.351 HD
ENDBRANCH   2  15
BRANCH   2  19
ATOM     19  N   UNL     1      51.194  51.311  18.177  1.00  0.00    -0.253 N 
ATOM     20  H   UNL     1      50.810  50.871  19.033  1.00  0.00    +0.193 HD
BRANCH  19  21
ATOM     21  N   UNL     1      50.208  51.490  17.169  1.00  0.00    -0.268 N 
ATOM     22  C   UNL     1      49.147  50.604  17.101  1.00  0.00    +0.357 C 
ATOM     23  O   UNL     1      48.689  50.004  18.070  1.00  0.00    -0.277 OA
ATOM     24  H   UNL     1      50.590  51.826  16.281  1.00  0.00    +0.191 HD
ENDBRANCH  19  21
ENDBRANCH   2  19
TORSDOF 5
ENDMDL
MODEL 5
REMARK VINA RESULT:    -7.411      2.579      3.416
REMARK INTER + INTRA:          -9.776
REMARK INTER:                  -8.972
REMARK INTRA:                  -0.804
REMARK UNBOUND:                -0.415
REMARK SMILES [NH3+]/C(=C/CN1C(=O)c2ccccc2C1=O)NNC=O
REMARK SMILES IDX 3 1 2 2 4 3 5 4 10 5 11 6 9 7 12 8 8 9 13 10 6 11 14 12 7 13
REMARK SMILES IDX 15 14 1 15 16 19 17 21 18 22 19 23
REMARK H PARENT 1 16 1 17 1 18 16 20 17 24
ROOT
ATOM      1  C   UNL     1      51.047  50.282  19.153  1.00  0.00    +0.084 C 
ATOM      2  C   UNL     1      50.502  50.337  17.931  1.00  0.00    +0.212 C 
ENDROOT
BRANCH   1   3
ATOM      3  C   UNL     1      52.388  50.846  19.530  1.00  0.00    +0.165 C 
BRANCH   3   4
ATOM      4  N   UNL     1      52.238  52.232  19.900  1.00  0.00    -0.270 N 
ATOM      5  C   UNL     1      51.920  56.781  20.374  1.00  0.00    +0.001 A 
ATOM      6  C   UNL     1      51.544  56.399  21.680  1.00  0.00    +0.001 A 
ATOM      7  C   UNL     1      52.253  55.823  19.413  1.00  0.00    +0.015 A 
ATOM      8  C   UNL     1      51.493  55.051  22.049  1.00  0.00    +0.015 A 
ATOM      9  C   UNL     1      52.193  54.499  19.799  1.00  0.00    +0.053 A 
ATOM     10  C   UNL     1      51.823  54.124  21.081  1.00  0.00    +0.053 A 
ATOM     11  C   UNL     1      52.485  53.276  19.053  1.00  0.00    +0.261 C 
ATOM     12  C   UNL     1      51.878  52.663  21.148  1.00  0.00    +0.261 C 
ATOM     13  O   UNL     1      52.924  53.212  17.918  1.00  0.00    -0.269 OA
ATOM     14  O   UNL     1      51.675  51.995  22.143  1.00  0.00    -0.269 OA
ENDBRANCH   3   4
ENDBRANCH   1   3
BRANCH   2  15
ATOM     15  N   UNL     1      49.218  49.801  17.794  1.00  0.00    -0.309 N 
ATOM     16  H   UNL     1      49.235  48.795  17.982  1.00  0.00    +0.351 HD
ATOM     17  H   UNL     1      48.739  49.971  16.908  1.00  0.00    +0.351 HD
ATOM     18  H   UNL     1      48.626  50.199  18.552  1.00  0.00    +0.351 HD
ENDBRANCH   2  15
BRANCH   2  19
ATOM     19  N   UNL     1      51.081  50.820  16.782  1.00  0.00    -0.253 N 
ATOM     20  H   UNL     1      51.825  51.520  16.955  1.00  0.00    +0.193 HD
BRANCH  19  21
ATOM     21  N   UNL     1      51.276  50.108  15.567  1.00  0.00    -0.268 N 
ATOM     22  C   UNL     1      52.528  50.117  14.977  1.00  0.00    +0.357 C 
ATOM     23  O   UNL     1      53.581  50.233  15.598  1.00  0.00    -0.277 OA
ATOM     24  H   UNL     1      50.468  50.142  14.942  1.00  0.00    +0.191 HD
ENDBRANCH  19  21
ENDBRANCH   2  19
TORSDOF 5
ENDMDL
