MODEL 1
REMARK VINA RESULT:    -9.824      0.000      0.000
REMARK INTER + INTRA:         -14.660
REMARK INTER:                 -13.845
REMARK INTRA:                  -0.815
REMARK UNBOUND:                -0.815
REMARK SMILES CC(=O)Nc1ccc(NC(=O)C(=O)NC[C@@H](c2ccc3c(c2)CCN3C)N2CC[NH+](C)CC2)cc1
REMARK SMILES IDX 12 1 13 2 14 3 10 5 9 6 11 7 8 9 5 10 6 11 35 12 7 13 34 14
REMARK SMILES IDX 4 15 2 16 3 17 1 18 15 20 16 21 17 22 18 23 22 24 19 25
REMARK SMILES IDX 21 26 20 27 23 28 25 29 24 30 26 31 27 32 28 33 33 34 29 35
REMARK SMILES IDX 32 36 30 37 31 38
REMARK H PARENT 14 4 9 8 4 19 30 39
ROOT
ATOM      1  C   UNL     1      49.191  53.885  18.028  1.00  0.00    +0.309 C 
ATOM      2  O   UNL     1      50.375  53.611  18.164  1.00  0.00    -0.264 OA
ATOM      3  N   UNL     1      48.274  53.234  17.237  1.00  0.00    -0.346 N 
ATOM      4  H   UNL     1      47.317  53.573  17.314  1.00  0.00    +0.164 HD
ENDROOT
BRANCH   1   5
ATOM      5  C   UNL     1      48.578  55.075  18.799  1.00  0.00    +0.313 C 
ATOM      6  N   UNL     1      48.508  56.219  18.035  1.00  0.00    -0.318 N 
ATOM      7  O   UNL     1      48.230  54.885  19.956  1.00  0.00    -0.263 OA
ATOM      8  H   UNL     1      48.840  56.120  17.082  1.00  0.00    +0.170 HD
BRANCH   6   9
ATOM      9  C   UNL     1      48.028  57.481  18.432  1.00  0.00    +0.041 A 
ATOM     10  C   UNL     1      47.041  60.049  19.082  1.00  0.00    +0.041 A 
ATOM     11  C   UNL     1      47.551  59.210  20.071  1.00  0.00    +0.028 A 
ATOM     12  C   UNL     1      47.021  59.590  17.761  1.00  0.00    +0.028 A 
ATOM     13  C   UNL     1      48.039  57.935  19.750  1.00  0.00    +0.028 A 
ATOM     14  C   UNL     1      47.516  58.319  17.438  1.00  0.00    +0.028 A 
BRANCH  10  15
ATOM     15  N   UNL     1      46.524  61.335  19.332  1.00  0.00    -0.326 N 
ATOM     16  C   UNL     1      45.193  61.712  19.365  1.00  0.00    +0.221 C 
ATOM     17  O   UNL     1      44.218  60.984  19.224  1.00  0.00    -0.275 OA
ATOM     18  C   UNL     1      45.030  63.190  19.616  1.00  0.00    +0.114 C 
ATOM     19  H   UNL     1      47.201  62.058  19.542  1.00  0.00    +0.169 HD
ENDBRANCH  10  15
ENDBRANCH   6   9
ENDBRANCH   1   5
BRANCH   3  20
ATOM     20  C   UNL     1      48.527  51.978  16.554  1.00  0.00    +0.140 C 
BRANCH  20  21
ATOM     21  C   UNL     1      48.193  50.727  17.433  1.00  0.00    +0.106 C 
BRANCH  21  22
ATOM     22  C   UNL     1      47.149  49.814  16.789  1.00  0.00    -0.029 A 
ATOM     23  C   UNL     1      46.009  49.365  17.494  1.00  0.00    +0.007 A 
ATOM     24  C   UNL     1      47.302  49.429  15.445  1.00  0.00    +0.011 A 
ATOM     25  C   UNL     1      45.021  48.588  16.873  1.00  0.00    +0.026 A 
ATOM     26  C   UNL     1      46.319  48.649  14.853  1.00  0.00    -0.023 A 
ATOM     27  C   UNL     1      45.181  48.233  15.547  1.00  0.00    +0.040 A 
ATOM     28  C   UNL     1      46.249  48.155  13.445  1.00  0.00    +0.059 C 
ATOM     29  N   UNL     1      44.295  47.508  14.729  1.00  0.00    -0.374 N 
ATOM     30  C   UNL     1      45.128  47.108  13.577  1.00  0.00    +0.121 C 
ATOM     31  C   UNL     1      43.482  46.479  15.356  1.00  0.00    +0.143 C 
ENDBRANCH  21  22
BRANCH  21  32
ATOM     32  N   UNL     1      49.410  50.002  17.890  1.00  0.00    -0.283 NA
ATOM     33  C   UNL     1      50.649  50.380  17.197  1.00  0.00    +0.146 C 
ATOM     34  C   UNL     1      49.560  49.887  19.350  1.00  0.00    +0.146 C 
ATOM     35  C   UNL     1      51.802  50.800  18.124  1.00  0.00    +0.277 C 
ATOM     36  C   UNL     1      50.817  49.094  19.747  1.00  0.00    +0.277 C 
ATOM     37  N   UNL     1      52.085  49.713  19.155  1.00  0.00    -0.335 N 
ATOM     38  C   UNL     1      53.043  50.194  20.203  1.00  0.00    +0.332 C 
ATOM     39  H   UNL     1      52.548  48.946  18.650  1.00  0.00    +0.347 HD
ENDBRANCH  21  32
ENDBRANCH  20  21
ENDBRANCH   3  20
TORSDOF 7
ENDMDL
MODEL 2
REMARK VINA RESULT:    -8.883      3.137      5.736
REMARK INTER + INTRA:         -13.333
REMARK INTER:                 -12.612
REMARK INTRA:                  -0.722
REMARK UNBOUND:                -0.815
REMARK SMILES CC(=O)Nc1ccc(NC(=O)C(=O)NC[C@@H](c2ccc3c(c2)CCN3C)N2CC[NH+](C)CC2)cc1
REMARK SMILES IDX 12 1 13 2 14 3 10 5 9 6 11 7 8 9 5 10 6 11 35 12 7 13 34 14
REMARK SMILES IDX 4 15 2 16 3 17 1 18 15 20 16 21 17 22 18 23 22 24 19 25
REMARK SMILES IDX 21 26 20 27 23 28 25 29 24 30 26 31 27 32 28 33 33 34 29 35
REMARK SMILES IDX 32 36 30 37 31 38
REMARK H PARENT 14 4 9 8 4 19 30 39
ROOT
ATOM      1  C   UNL     1      47.972  57.751  18.066  1.00  0.00    +0.309 C 
ATOM      2  O   UNL     1      47.795  57.509  16.880  1.00  0.00    -0.264 OA
ATOM      3  N   UNL     1      48.691  57.002  18.968  1.00  0.00    -0.346 N 
ATOM      4  H   UNL     1      48.780  57.410  19.897  1.00  0.00    +0.164 HD
ENDROOT
BRANCH   1   5
ATOM      5  C   UNL     1      47.360  59.021  18.696  1.00  0.00    +0.313 C 
ATOM      6  N   UNL     1      46.689  59.797  17.776  1.00  0.00    -0.318 N 
ATOM      7  O   UNL     1      47.525  59.198  19.895  1.00  0.00    -0.263 OA
ATOM      8  H   UNL     1      46.668  59.422  16.834  1.00  0.00    +0.170 HD
BRANCH   6   9
ATOM      9  C   UNL     1      46.039  61.023  18.008  1.00  0.00    +0.041 A 
ATOM     10  C   UNL     1      44.709  63.497  18.323  1.00  0.00    +0.041 A 
ATOM     11  C   UNL     1      45.311  62.868  19.411  1.00  0.00    +0.028 A 
ATOM     12  C   UNL     1      44.770  62.874  17.072  1.00  0.00    +0.028 A 
ATOM     13  C   UNL     1      45.969  61.640  19.256  1.00  0.00    +0.028 A 
ATOM     14  C   UNL     1      45.436  61.651  16.914  1.00  0.00    +0.028 A 
BRANCH  10  15
ATOM     15  N   UNL     1      44.021  64.724  18.406  1.00  0.00    -0.326 N 
ATOM     16  C   UNL     1      42.656  64.928  18.311  1.00  0.00    +0.221 C 
ATOM     17  O   UNL     1      41.791  64.071  18.179  1.00  0.00    -0.275 OA
ATOM     18  C   UNL     1      42.296  66.390  18.399  1.00  0.00    +0.114 C 
ATOM     19  H   UNL     1      44.587  65.544  18.586  1.00  0.00    +0.169 HD
ENDBRANCH  10  15
ENDBRANCH   6   9
ENDBRANCH   1   5
BRANCH   3  20
ATOM     20  C   UNL     1      49.523  55.867  18.610  1.00  0.00    +0.140 C 
BRANCH  20  21
ATOM     21  C   UNL     1      49.835  54.932  19.825  1.00  0.00    +0.106 C 
BRANCH  21  22
ATOM     22  C   UNL     1      49.800  53.450  19.455  1.00  0.00    -0.029 A 
ATOM     23  C   UNL     1      49.120  52.981  18.307  1.00  0.00    +0.007 A 
ATOM     24  C   UNL     1      50.488  52.520  20.255  1.00  0.00    +0.011 A 
ATOM     25  C   UNL     1      49.154  51.629  17.936  1.00  0.00    +0.026 A 
ATOM     26  C   UNL     1      50.499  51.185  19.877  1.00  0.00    -0.023 A 
ATOM     27  C   UNL     1      49.849  50.732  18.727  1.00  0.00    +0.040 A 
ATOM     28  C   UNL     1      51.185  50.038  20.542  1.00  0.00    +0.059 C 
ATOM     29  N   UNL     1      50.049  49.357  18.510  1.00  0.00    -0.374 N 
ATOM     30  C   UNL     1      50.508  48.858  19.822  1.00  0.00    +0.121 C 
ATOM     31  C   UNL     1      48.991  48.615  17.844  1.00  0.00    +0.143 C 
ENDBRANCH  21  22
BRANCH  21  32
ATOM     32  N   UNL     1      51.071  55.330  20.555  1.00  0.00    -0.283 NA
ATOM     33  C   UNL     1      52.150  55.847  19.704  1.00  0.00    +0.146 C 
ATOM     34  C   UNL     1      50.850  56.121  21.777  1.00  0.00    +0.146 C 
ATOM     35  C   UNL     1      52.694  57.224  20.120  1.00  0.00    +0.277 C 
ATOM     36  C   UNL     1      52.166  56.462  22.497  1.00  0.00    +0.277 C 
ATOM     37  N   UNL     1      53.135  57.208  21.579  1.00  0.00    -0.335 N 
ATOM     38  C   UNL     1      53.453  58.590  22.066  1.00  0.00    +0.332 C 
ATOM     39  H   UNL     1      54.009  56.666  21.613  1.00  0.00    +0.347 HD
ENDBRANCH  21  32
ENDBRANCH  20  21
ENDBRANCH   3  20
TORSDOF 7
ENDMDL
MODEL 3
REMARK VINA RESULT:    -8.750      3.125      9.324
REMARK INTER + INTRA:         -13.146
REMARK INTER:                 -12.325
REMARK INTRA:                  -0.821
REMARK UNBOUND:                -0.815
REMARK SMILES CC(=O)Nc1ccc(NC(=O)C(=O)NC[C@@H](c2ccc3c(c2)CCN3C)N2CC[NH+](C)CC2)cc1
REMARK SMILES IDX 12 1 13 2 14 3 10 5 9 6 11 7 8 9 5 10 6 11 35 12 7 13 34 14
REMARK SMILES IDX 4 15 2 16 3 17 1 18 15 20 16 21 17 22 18 23 22 24 19 25
REMARK SMILES IDX 21 26 20 27 23 28 25 29 24 30 26 31 27 32 28 33 33 34 29 35
REMARK SMILES IDX 32 36 30 37 31 38
REMARK H PARENT 14 4 9 8 4 19 30 39
ROOT
ATOM      1  C   UNL     1      50.438  53.106  18.698  1.00  0.00    +0.309 C 
ATOM      2  O   UNL     1      51.522  53.660  18.586  1.00  0.00    -0.264 OA
ATOM      3  N   UNL     1      49.391  53.485  19.503  1.00  0.00    -0.346 N 
ATOM      4  H   UNL     1      48.543  52.931  19.403  1.00  0.00    +0.164 HD
ENDROOT
BRANCH   1   5
ATOM      5  C   UNL     1      50.129  51.837  17.873  1.00  0.00    +0.313 C 
ATOM      6  N   UNL     1      48.823  51.795  17.438  1.00  0.00    -0.318 N 
ATOM      7  O   UNL     1      51.037  51.037  17.697  1.00  0.00    -0.263 OA
ATOM      8  H   UNL     1      48.260  52.599  17.693  1.00  0.00    +0.170 HD
BRANCH   6   9
ATOM      9  C   UNL     1      48.206  50.777  16.688  1.00  0.00    +0.041 A 
ATOM     10  C   UNL     1      46.874  48.707  15.298  1.00  0.00    +0.041 A 
ATOM     11  C   UNL     1      48.001  49.321  14.754  1.00  0.00    +0.028 A 
ATOM     12  C   UNL     1      46.411  49.143  16.543  1.00  0.00    +0.028 A 
ATOM     13  C   UNL     1      48.661  50.349  15.442  1.00  0.00    +0.028 A 
ATOM     14  C   UNL     1      47.075  50.165  17.236  1.00  0.00    +0.028 A 
BRANCH  10  15
ATOM     15  N   UNL     1      46.154  47.678  14.660  1.00  0.00    -0.326 N 
ATOM     16  C   UNL     1      45.643  47.685  13.374  1.00  0.00    +0.221 C 
ATOM     17  O   UNL     1      45.760  48.574  12.539  1.00  0.00    -0.275 OA
ATOM     18  C   UNL     1      44.887  46.419  13.060  1.00  0.00    +0.114 C 
ATOM     19  H   UNL     1      46.022  46.826  15.191  1.00  0.00    +0.169 HD
ENDBRANCH  10  15
ENDBRANCH   6   9
ENDBRANCH   1   5
BRANCH   3  20
ATOM     20  C   UNL     1      49.335  54.736  20.238  1.00  0.00    +0.140 C 
BRANCH  20  21
ATOM     21  C   UNL     1      49.951  55.937  19.447  1.00  0.00    +0.106 C 
BRANCH  21  22
ATOM     22  C   UNL     1      48.938  56.626  18.534  1.00  0.00    -0.029 A 
ATOM     23  C   UNL     1      48.267  57.811  18.917  1.00  0.00    +0.007 A 
ATOM     24  C   UNL     1      48.680  56.091  17.258  1.00  0.00    +0.011 A 
ATOM     25  C   UNL     1      47.394  58.475  18.044  1.00  0.00    +0.026 A 
ATOM     26  C   UNL     1      47.803  56.757  16.415  1.00  0.00    -0.023 A 
ATOM     27  C   UNL     1      47.166  57.942  16.788  1.00  0.00    +0.040 A 
ATOM     28  C   UNL     1      47.408  56.402  15.019  1.00  0.00    +0.059 C 
ATOM     29  N   UNL     1      46.374  58.470  15.752  1.00  0.00    -0.374 N 
ATOM     30  C   UNL     1      46.193  57.329  14.833  1.00  0.00    +0.121 C 
ATOM     31  C   UNL     1      45.189  59.226  16.123  1.00  0.00    +0.143 C 
ENDBRANCH  21  22
BRANCH  21  32
ATOM     32  N   UNL     1      50.695  56.884  20.324  1.00  0.00    -0.283 NA
ATOM     33  C   UNL     1      50.643  56.567  21.757  1.00  0.00    +0.146 C 
ATOM     34  C   UNL     1      52.037  57.256  19.848  1.00  0.00    +0.146 C 
ATOM     35  C   UNL     1      52.016  56.463  22.443  1.00  0.00    +0.277 C 
ATOM     36  C   UNL     1      52.729  58.265  20.782  1.00  0.00    +0.277 C 
ATOM     37  N   UNL     1      52.828  57.733  22.212  1.00  0.00    -0.335 N 
ATOM     38  C   UNL     1      54.244  57.563  22.674  1.00  0.00    +0.332 C 
ATOM     39  H   UNL     1      52.403  58.462  22.801  1.00  0.00    +0.347 HD
ENDBRANCH  21  32
ENDBRANCH  20  21
ENDBRANCH   3  20
TORSDOF 7
ENDMDL
MODEL 4
REMARK VINA RESULT:    -8.679      3.556      6.783
REMARK INTER + INTRA:         -13.047
REMARK INTER:                 -12.193
REMARK INTRA:                  -0.854
REMARK UNBOUND:                -0.815
REMARK SMILES CC(=O)Nc1ccc(NC(=O)C(=O)NC[C@@H](c2ccc3c(c2)CCN3C)N2CC[NH+](C)CC2)cc1
REMARK SMILES IDX 12 1 13 2 14 3 10 5 9 6 11 7 8 9 5 10 6 11 35 12 7 13 34 14
REMARK SMILES IDX 4 15 2 16 3 17 1 18 15 20 16 21 17 22 18 23 22 24 19 25
REMARK SMILES IDX 21 26 20 27 23 28 25 29 24 30 26 31 27 32 28 33 33 34 29 35
REMARK SMILES IDX 32 36 30 37 31 38
REMARK H PARENT 14 4 9 8 4 19 30 39
ROOT
ATOM      1  C   UNL     1      51.327  50.164  19.605  1.00  0.00    +0.309 C 
ATOM      2  O   UNL     1      51.586  49.018  19.941  1.00  0.00    -0.264 OA
ATOM      3  N   UNL     1      50.530  50.562  18.557  1.00  0.00    -0.346 N 
ATOM      4  H   UNL     1      50.381  51.567  18.483  1.00  0.00    +0.164 HD
ENDROOT
BRANCH   1   5
ATOM      5  C   UNL     1      51.915  51.354  20.394  1.00  0.00    +0.313 C 
ATOM      6  N   UNL     1      51.183  52.510  20.231  1.00  0.00    -0.318 N 
ATOM      7  O   UNL     1      52.924  51.155  21.057  1.00  0.00    -0.263 OA
ATOM      8  H   UNL     1      50.361  52.417  19.645  1.00  0.00    +0.170 HD
BRANCH   6   9
ATOM      9  C   UNL     1      51.451  53.774  20.786  1.00  0.00    +0.041 A 
ATOM     10  C   UNL     1      52.032  56.362  21.765  1.00  0.00    +0.041 A 
ATOM     11  C   UNL     1      51.666  55.337  22.634  1.00  0.00    +0.028 A 
ATOM     12  C   UNL     1      52.099  56.085  20.395  1.00  0.00    +0.028 A 
ATOM     13  C   UNL     1      51.375  54.054  22.150  1.00  0.00    +0.028 A 
ATOM     14  C   UNL     1      51.818  54.800  19.911  1.00  0.00    +0.028 A 
BRANCH  10  15
ATOM     15  N   UNL     1      52.326  57.676  22.177  1.00  0.00    -0.326 N 
ATOM     16  C   UNL     1      53.556  58.309  22.151  1.00  0.00    +0.221 C 
ATOM     17  O   UNL     1      54.609  57.853  21.724  1.00  0.00    -0.275 OA
ATOM     18  C   UNL     1      53.487  59.703  22.722  1.00  0.00    +0.114 C 
ATOM     19  H   UNL     1      51.543  58.231  22.501  1.00  0.00    +0.169 HD
ENDBRANCH  10  15
ENDBRANCH   6   9
ENDBRANCH   1   5
BRANCH   3  20
ATOM     20  C   UNL     1      49.705  49.664  17.770  1.00  0.00    +0.140 C 
BRANCH  20  21
ATOM     21  C   UNL     1      48.247  50.195  17.566  1.00  0.00    +0.106 C 
BRANCH  21  22
ATOM     22  C   UNL     1      48.197  51.700  17.305  1.00  0.00    -0.029 A 
ATOM     23  C   UNL     1      47.795  52.230  16.056  1.00  0.00    +0.007 A 
ATOM     24  C   UNL     1      48.527  52.594  18.339  1.00  0.00    +0.011 A 
ATOM     25  C   UNL     1      47.682  53.612  15.849  1.00  0.00    +0.026 A 
ATOM     26  C   UNL     1      48.421  53.958  18.108  1.00  0.00    -0.023 A 
ATOM     27  C   UNL     1      47.996  54.474  16.882  1.00  0.00    +0.040 A 
ATOM     28  C   UNL     1      48.681  55.082  19.056  1.00  0.00    +0.059 C 
ATOM     29  N   UNL     1      47.905  55.878  16.900  1.00  0.00    -0.374 N 
ATOM     30  C   UNL     1      48.711  56.268  18.075  1.00  0.00    +0.121 C 
ATOM     31  C   UNL     1      48.149  56.589  15.656  1.00  0.00    +0.143 C 
ENDBRANCH  21  22
BRANCH  21  32
ATOM     32  N   UNL     1      47.477  49.396  16.573  1.00  0.00    -0.283 NA
ATOM     33  C   UNL     1      48.127  48.151  16.145  1.00  0.00    +0.146 C 
ATOM     34  C   UNL     1      46.042  49.244  16.869  1.00  0.00    +0.146 C 
ATOM     35  C   UNL     1      47.262  46.889  16.297  1.00  0.00    +0.277 C 
ATOM     36  C   UNL     1      45.305  48.442  15.782  1.00  0.00    +0.277 C 
ATOM     37  N   UNL     1      45.929  47.061  15.578  1.00  0.00    -0.335 N 
ATOM     38  C   UNL     1      44.987  45.941  15.903  1.00  0.00    +0.332 C 
ATOM     39  H   UNL     1      46.132  47.004  14.571  1.00  0.00    +0.347 HD
ENDBRANCH  21  32
ENDBRANCH  20  21
ENDBRANCH   3  20
TORSDOF 7
ENDMDL
MODEL 5
REMARK VINA RESULT:    -8.312      5.716     11.493
REMARK INTER + INTRA:         -12.529
REMARK INTER:                 -11.171
REMARK INTRA:                  -1.358
REMARK UNBOUND:                -0.815
REMARK SMILES CC(=O)Nc1ccc(NC(=O)C(=O)NC[C@@H](c2ccc3c(c2)CCN3C)N2CC[NH+](C)CC2)cc1
REMARK SMILES IDX 12 1 13 2 14 3 10 5 9 6 11 7 8 9 5 10 6 11 35 12 7 13 34 14
REMARK SMILES IDX 4 15 2 16 3 17 1 18 15 20 16 21 17 22 18 23 22 24 19 25
REMARK SMILES IDX 21 26 20 27 23 28 25 29 24 30 26 31 27 32 28 33 33 34 29 35
REMARK SMILES IDX 32 36 30 37 31 38
REMARK H PARENT 14 4 9 8 4 19 30 39
ROOT
ATOM      1  C   UNL     1      46.064  61.759  18.898  1.00  0.00    +0.309 C 
ATOM      2  O   UNL     1      46.341  62.916  18.619  1.00  0.00    -0.264 OA
ATOM      3  N   UNL     1      44.839  61.268  19.285  1.00  0.00    -0.346 N 
ATOM      4  H   UNL     1      44.794  60.258  19.406  1.00  0.00    +0.164 HD
ENDROOT
BRANCH   1   5
ATOM      5  C   UNL     1      47.151  60.664  18.827  1.00  0.00    +0.313 C 
ATOM      6  N   UNL     1      46.867  59.584  19.635  1.00  0.00    -0.318 N 
ATOM      7  O   UNL     1      48.107  60.858  18.091  1.00  0.00    -0.263 OA
ATOM      8  H   UNL     1      45.988  59.644  20.137  1.00  0.00    +0.170 HD
BRANCH   6   9
ATOM      9  C   UNL     1      47.651  58.431  19.823  1.00  0.00    +0.041 A 
ATOM     10  C   UNL     1      49.258  56.164  20.341  1.00  0.00    +0.041 A 
ATOM     11  C   UNL     1      48.708  56.374  19.078  1.00  0.00    +0.028 A 
ATOM     12  C   UNL     1      48.991  57.096  21.350  1.00  0.00    +0.028 A 
ATOM     13  C   UNL     1      47.909  57.497  18.821  1.00  0.00    +0.028 A 
ATOM     14  C   UNL     1      48.200  58.223  21.091  1.00  0.00    +0.028 A 
BRANCH  10  15
ATOM     15  N   UNL     1      50.058  55.054  20.676  1.00  0.00    -0.326 N 
ATOM     16  C   UNL     1      51.439  55.011  20.757  1.00  0.00    +0.221 C 
ATOM     17  O   UNL     1      52.216  55.943  20.594  1.00  0.00    -0.275 OA
ATOM     18  C   UNL     1      51.941  53.630  21.097  1.00  0.00    +0.114 C 
ATOM     19  H   UNL     1      49.567  54.202  20.913  1.00  0.00    +0.169 HD
ENDBRANCH  10  15
ENDBRANCH   6   9
ENDBRANCH   1   5
BRANCH   3  20
ATOM     20  C   UNL     1      43.605  62.032  19.255  1.00  0.00    +0.140 C 
BRANCH  20  21
ATOM     21  C   UNL     1      43.042  62.226  17.808  1.00  0.00    +0.106 C 
BRANCH  21  22
ATOM     22  C   UNL     1      42.794  60.901  17.087  1.00  0.00    -0.029 A 
ATOM     23  C   UNL     1      43.622  60.457  16.031  1.00  0.00    +0.007 A 
ATOM     24  C   UNL     1      41.732  60.077  17.501  1.00  0.00    +0.011 A 
ATOM     25  C   UNL     1      43.430  59.207  15.425  1.00  0.00    +0.026 A 
ATOM     26  C   UNL     1      41.551  58.850  16.879  1.00  0.00    -0.023 A 
ATOM     27  C   UNL     1      42.390  58.404  15.856  1.00  0.00    +0.040 A 
ATOM     28  C   UNL     1      40.526  57.804  17.171  1.00  0.00    +0.059 C 
ATOM     29  N   UNL     1      42.056  57.108  15.422  1.00  0.00    -0.374 N 
ATOM     30  C   UNL     1      40.682  56.912  15.926  1.00  0.00    +0.121 C 
ATOM     31  C   UNL     1      42.313  56.772  14.031  1.00  0.00    +0.143 C 
ENDBRANCH  21  22
BRANCH  21  32
ATOM     32  N   UNL     1      41.876  63.151  17.763  1.00  0.00    -0.283 NA
ATOM     33  C   UNL     1      41.366  63.566  19.076  1.00  0.00    +0.146 C 
ATOM     34  C   UNL     1      41.989  64.255  16.796  1.00  0.00    +0.146 C 
ATOM     35  C   UNL     1      41.259  65.087  19.273  1.00  0.00    +0.277 C 
ATOM     36  C   UNL     1      40.734  65.146  16.777  1.00  0.00    +0.277 C 
ATOM     37  N   UNL     1      40.425  65.715  18.162  1.00  0.00    -0.335 N 
ATOM     38  C   UNL     1      40.498  67.211  18.207  1.00  0.00    +0.332 C 
ATOM     39  H   UNL     1      39.447  65.453  18.348  1.00  0.00    +0.347 HD
ENDBRANCH  21  32
ENDBRANCH  20  21
ENDBRANCH   3  20
TORSDOF 7
ENDMDL
