MODEL 1
REMARK VINA RESULT:    -8.962      0.000      0.000
REMARK INTER + INTRA:         -16.465
REMARK INTER:                 -13.939
REMARK INTRA:                  -2.526
REMARK UNBOUND:                -2.526
REMARK SMILES CC(C)[C@@H](NC(=O)CCNc1ccc(S(N)(=O)=O)cc1[N+](=O)[O-])c1ccc(F)cc1
REMARK SMILES IDX 9 1 8 2 6 3 5 4 7 5 4 7 2 8 1 9 3 10 24 11 25 12 30 13 26 14
REMARK SMILES IDX 29 15 27 16 28 17 10 18 11 20 12 21 20 22 13 23 19 24 14 25
REMARK SMILES IDX 21 26 22 27 23 28 15 29 17 30 18 31 16 32
REMARK H PARENT 5 6 10 19 16 33 16 34
ROOT
ATOM      1  C   UNL     1      50.519  49.954  20.755  1.00  0.00    +0.123 C 
ENDROOT
BRANCH   1   2
ATOM      2  C   UNL     1      50.243  48.903  19.685  1.00  0.00    +0.121 C 
BRANCH   2   3
ATOM      3  C   UNL     1      49.039  49.249  18.839  1.00  0.00    +0.222 C 
ATOM      4  N   UNL     1      49.302  50.196  17.871  1.00  0.00    -0.349 N 
ATOM      5  O   UNL     1      47.930  48.757  19.021  1.00  0.00    -0.275 OA
ATOM      6  H   UNL     1      50.172  50.709  17.925  1.00  0.00    +0.164 HD
BRANCH   4   7
ATOM      7  C   UNL     1      48.244  50.770  17.049  1.00  0.00    +0.115 C 
BRANCH   7   8
ATOM      8  C   UNL     1      48.333  50.243  15.589  1.00  0.00    +0.010 C 
ATOM      9  C   UNL     1      47.478  48.985  15.391  1.00  0.00    +0.010 C 
ATOM     10  C   UNL     1      49.785  49.920  15.203  1.00  0.00    +0.010 C 
ENDBRANCH   7   8
BRANCH   7  11
ATOM     11  C   UNL     1      48.312  52.286  17.190  1.00  0.00    -0.025 A 
ATOM     12  C   UNL     1      49.030  52.844  18.264  1.00  0.00    +0.009 A 
ATOM     13  C   UNL     1      47.728  53.152  16.249  1.00  0.00    +0.009 A 
ATOM     14  C   UNL     1      49.133  54.229  18.410  1.00  0.00    +0.039 A 
ATOM     15  C   UNL     1      47.832  54.537  16.397  1.00  0.00    +0.039 A 
ATOM     16  C   UNL     1      48.531  55.062  17.477  1.00  0.00    +0.123 A 
ATOM     17  F   UNL     1      48.634  56.390  17.614  1.00  0.00    -0.207 F 
ENDBRANCH   7  11
ENDBRANCH   4   7
ENDBRANCH   2   3
ENDBRANCH   1   2
BRANCH   1  18
ATOM     18  N   UNL     1      51.806  50.629  20.532  1.00  0.00    -0.379 N 
ATOM     19  H   UNL     1      52.569  50.114  20.986  1.00  0.00    +0.160 HD
BRANCH  18  20
ATOM     20  C   UNL     1      51.933  52.020  20.683  1.00  0.00    +0.113 A 
ATOM     21  C   UNL     1      51.553  52.650  21.882  1.00  0.00    +0.034 A 
ATOM     22  C   UNL     1      52.305  52.876  19.617  1.00  0.00    +0.293 A 
ATOM     23  C   UNL     1      51.599  54.041  22.039  1.00  0.00    +0.024 A 
ATOM     24  C   UNL     1      52.356  54.276  19.758  1.00  0.00    +0.109 A 
ATOM     25  C   UNL     1      52.013  54.845  20.981  1.00  0.00    +0.089 A 
BRANCH  22  26
ATOM     26  N   UNL     1      52.697  52.324  18.319  1.00  0.00    +0.065 N 
ATOM     27  O   UNL     1      53.597  52.905  17.690  1.00  0.00    -0.258 OA
ATOM     28  O   UNL     1      52.084  51.327  17.910  1.00  0.00    -0.258 OA
ENDBRANCH  22  26
BRANCH  25  29
ATOM     29  S   UNL     1      52.051  56.605  21.195  1.00  0.00    +0.238 S 
ATOM     30  O   UNL     1      51.182  57.196  20.209  1.00  0.00    -0.207 OA
ATOM     31  O   UNL     1      53.426  57.011  21.372  1.00  0.00    -0.207 OA
BRANCH  29  32
ATOM     32  N   UNL     1      51.334  56.782  22.706  1.00  0.00    -0.225 NA
ATOM     33  H   UNL     1      50.684  56.036  22.951  1.00  0.00    +0.137 HD
ATOM     34  H   UNL     1      52.062  56.916  23.410  1.00  0.00    +0.137 HD
ENDBRANCH  29  32
ENDBRANCH  25  29
ENDBRANCH  18  20
ENDBRANCH   1  18
TORSDOF 10
ENDMDL
MODEL 2
REMARK VINA RESULT:    -8.497      2.906      4.284
REMARK INTER + INTRA:         -15.741
REMARK INTER:                 -14.134
REMARK INTRA:                  -1.608
REMARK UNBOUND:                -2.526
REMARK SMILES CC(C)[C@@H](NC(=O)CCNc1ccc(S(N)(=O)=O)cc1[N+](=O)[O-])c1ccc(F)cc1
REMARK SMILES IDX 9 1 8 2 6 3 5 4 7 5 4 7 2 8 1 9 3 10 24 11 25 12 30 13 26 14
REMARK SMILES IDX 29 15 27 16 28 17 10 18 11 20 12 21 20 22 13 23 19 24 14 25
REMARK SMILES IDX 21 26 22 27 23 28 15 29 17 30 18 31 16 32
REMARK H PARENT 5 6 10 19 16 33 16 34
ROOT
ATOM      1  C   UNL     1      49.091  54.707  17.700  1.00  0.00    +0.123 C 
ENDROOT
BRANCH   1   2
ATOM      2  C   UNL     1      48.109  53.632  17.243  1.00  0.00    +0.121 C 
BRANCH   2   3
ATOM      3  C   UNL     1      48.666  52.237  17.418  1.00  0.00    +0.222 C 
ATOM      4  N   UNL     1      48.232  51.349  16.457  1.00  0.00    -0.349 N 
ATOM      5  O   UNL     1      49.406  51.923  18.345  1.00  0.00    -0.275 OA
ATOM      6  H   UNL     1      47.461  51.623  15.862  1.00  0.00    +0.164 HD
BRANCH   4   7
ATOM      7  C   UNL     1      48.538  49.925  16.530  1.00  0.00    +0.115 C 
BRANCH   7   8
ATOM      8  C   UNL     1      48.925  49.371  15.130  1.00  0.00    +0.010 C 
ATOM      9  C   UNL     1      50.409  49.607  14.822  1.00  0.00    +0.010 C 
ATOM     10  C   UNL     1      48.081  50.023  14.023  1.00  0.00    +0.010 C 
ENDBRANCH   7   8
BRANCH   7  11
ATOM     11  C   UNL     1      47.357  49.226  17.193  1.00  0.00    -0.025 A 
ATOM     12  C   UNL     1      47.552  48.560  18.417  1.00  0.00    +0.009 A 
ATOM     13  C   UNL     1      46.061  49.271  16.650  1.00  0.00    +0.009 A 
ATOM     14  C   UNL     1      46.487  47.930  19.063  1.00  0.00    +0.039 A 
ATOM     15  C   UNL     1      44.997  48.639  17.298  1.00  0.00    +0.039 A 
ATOM     16  C   UNL     1      45.220  47.973  18.497  1.00  0.00    +0.123 A 
ATOM     17  F   UNL     1      44.198  47.372  19.119  1.00  0.00    -0.207 F 
ENDBRANCH   7  11
ENDBRANCH   4   7
ENDBRANCH   2   3
ENDBRANCH   1   2
BRANCH   1  18
ATOM     18  N   UNL     1      49.342  54.631  19.147  1.00  0.00    -0.379 N 
ATOM     19  H   UNL     1      48.459  54.605  19.668  1.00  0.00    +0.160 HD
BRANCH  18  20
ATOM     20  C   UNL     1      50.303  55.450  19.761  1.00  0.00    +0.113 A 
ATOM     21  C   UNL     1      49.993  56.773  20.127  1.00  0.00    +0.034 A 
ATOM     22  C   UNL     1      51.657  55.060  19.917  1.00  0.00    +0.293 A 
ATOM     23  C   UNL     1      50.947  57.638  20.675  1.00  0.00    +0.024 A 
ATOM     24  C   UNL     1      52.630  55.918  20.465  1.00  0.00    +0.109 A 
ATOM     25  C   UNL     1      52.257  57.202  20.853  1.00  0.00    +0.089 A 
BRANCH  22  26
ATOM     26  N   UNL     1      52.093  53.713  19.545  1.00  0.00    +0.065 N 
ATOM     27  O   UNL     1      52.339  53.494  18.347  1.00  0.00    -0.258 OA
ATOM     28  O   UNL     1      52.160  52.863  20.444  1.00  0.00    -0.258 OA
ENDBRANCH  22  26
BRANCH  25  29
ATOM     29  S   UNL     1      53.455  58.317  21.535  1.00  0.00    +0.238 S 
ATOM     30  O   UNL     1      52.751  59.434  22.113  1.00  0.00    -0.207 OA
ATOM     31  O   UNL     1      54.525  58.475  20.577  1.00  0.00    -0.207 OA
BRANCH  29  32
ATOM     32  N   UNL     1      54.106  57.399  22.786  1.00  0.00    -0.225 NA
ATOM     33  H   UNL     1      53.522  56.616  23.077  1.00  0.00    +0.137 HD
ATOM     34  H   UNL     1      55.053  57.110  22.533  1.00  0.00    +0.137 HD
ENDBRANCH  29  32
ENDBRANCH  25  29
ENDBRANCH  18  20
ENDBRANCH   1  18
TORSDOF 10
ENDMDL
MODEL 3
REMARK VINA RESULT:    -8.251      3.262      5.015
REMARK INTER + INTRA:         -15.360
REMARK INTER:                 -14.250
REMARK INTRA:                  -1.110
REMARK UNBOUND:                -2.526
REMARK SMILES CC(C)[C@@H](NC(=O)CCNc1ccc(S(N)(=O)=O)cc1[N+](=O)[O-])c1ccc(F)cc1
REMARK SMILES IDX 9 1 8 2 6 3 5 4 7 5 4 7 2 8 1 9 3 10 24 11 25 12 30 13 26 14
REMARK SMILES IDX 29 15 27 16 28 17 10 18 11 20 12 21 20 22 13 23 19 24 14 25
REMARK SMILES IDX 21 26 22 27 23 28 15 29 17 30 18 31 16 32
REMARK H PARENT 5 6 10 19 16 33 16 34
ROOT
ATOM      1  C   UNL     1      49.011  55.030  17.678  1.00  0.00    +0.123 C 
ENDROOT
BRANCH   1   2
ATOM      2  C   UNL     1      48.083  53.871  17.329  1.00  0.00    +0.121 C 
BRANCH   2   3
ATOM      3  C   UNL     1      48.743  52.527  17.538  1.00  0.00    +0.222 C 
ATOM      4  N   UNL     1      48.077  51.487  16.926  1.00  0.00    -0.349 N 
ATOM      5  O   UNL     1      49.755  52.377  18.216  1.00  0.00    -0.275 OA
ATOM      6  H   UNL     1      47.143  51.655  16.576  1.00  0.00    +0.164 HD
BRANCH   4   7
ATOM      7  C   UNL     1      48.469  50.097  17.127  1.00  0.00    +0.115 C 
BRANCH   7   8
ATOM      8  C   UNL     1      49.139  49.522  15.847  1.00  0.00    +0.010 C 
ATOM      9  C   UNL     1      48.541  50.138  14.575  1.00  0.00    +0.010 C 
ATOM     10  C   UNL     1      48.982  47.995  15.776  1.00  0.00    +0.010 C 
ENDBRANCH   7   8
BRANCH   7  11
ATOM     11  C   UNL     1      47.244  49.330  17.610  1.00  0.00    -0.025 A 
ATOM     12  C   UNL     1      47.357  48.493  18.735  1.00  0.00    +0.009 A 
ATOM     13  C   UNL     1      45.984  49.472  17.001  1.00  0.00    +0.009 A 
ATOM     14  C   UNL     1      46.249  47.794  19.219  1.00  0.00    +0.039 A 
ATOM     15  C   UNL     1      44.877  48.772  17.487  1.00  0.00    +0.039 A 
ATOM     16  C   UNL     1      45.021  47.938  18.588  1.00  0.00    +0.123 A 
ATOM     17  F   UNL     1      43.957  47.272  19.055  1.00  0.00    -0.207 F 
ENDBRANCH   7  11
ENDBRANCH   4   7
ENDBRANCH   2   3
ENDBRANCH   1   2
BRANCH   1  18
ATOM     18  N   UNL     1      49.205  55.150  19.130  1.00  0.00    -0.379 N 
ATOM     19  H   UNL     1      48.313  55.328  19.603  1.00  0.00    +0.160 HD
BRANCH  18  20
ATOM     20  C   UNL     1      50.256  55.917  19.662  1.00  0.00    +0.113 A 
ATOM     21  C   UNL     1      51.596  55.569  19.414  1.00  0.00    +0.034 A 
ATOM     22  C   UNL     1      50.044  56.976  20.579  1.00  0.00    +0.293 A 
ATOM     23  C   UNL     1      52.666  56.268  19.987  1.00  0.00    +0.024 A 
ATOM     24  C   UNL     1      51.107  57.689  21.165  1.00  0.00    +0.109 A 
ATOM     25  C   UNL     1      52.416  57.333  20.849  1.00  0.00    +0.089 A 
BRANCH  22  26
ATOM     26  N   UNL     1      48.687  57.403  20.926  1.00  0.00    +0.065 N 
ATOM     27  O   UNL     1      48.558  58.242  21.833  1.00  0.00    -0.258 OA
ATOM     28  O   UNL     1      47.746  56.879  20.313  1.00  0.00    -0.258 OA
ENDBRANCH  22  26
BRANCH  25  29
ATOM     29  S   UNL     1      53.782  58.197  21.576  1.00  0.00    +0.238 S 
ATOM     30  O   UNL     1      54.550  58.797  20.514  1.00  0.00    -0.207 OA
ATOM     31  O   UNL     1      54.371  57.347  22.586  1.00  0.00    -0.207 OA
BRANCH  29  32
ATOM     32  N   UNL     1      53.002  59.423  22.422  1.00  0.00    -0.225 NA
ATOM     33  H   UNL     1      53.582  60.242  22.602  1.00  0.00    +0.137 HD
ATOM     34  H   UNL     1      52.129  59.658  21.945  1.00  0.00    +0.137 HD
ENDBRANCH  29  32
ENDBRANCH  25  29
ENDBRANCH  18  20
ENDBRANCH   1  18
TORSDOF 10
ENDMDL
MODEL 4
REMARK VINA RESULT:    -8.245      3.818      7.488
REMARK INTER + INTRA:         -15.349
REMARK INTER:                 -14.362
REMARK INTRA:                  -0.987
REMARK UNBOUND:                -2.526
REMARK SMILES CC(C)[C@@H](NC(=O)CCNc1ccc(S(N)(=O)=O)cc1[N+](=O)[O-])c1ccc(F)cc1
REMARK SMILES IDX 9 1 8 2 6 3 5 4 7 5 4 7 2 8 1 9 3 10 24 11 25 12 30 13 26 14
REMARK SMILES IDX 29 15 27 16 28 17 10 18 11 20 12 21 20 22 13 23 19 24 14 25
REMARK SMILES IDX 21 26 22 27 23 28 15 29 17 30 18 31 16 32
REMARK H PARENT 5 6 10 19 16 33 16 34
ROOT
ATOM      1  C   UNL     1      50.751  50.947  18.340  1.00  0.00    +0.123 C 
ENDROOT
BRANCH   1   2
ATOM      2  C   UNL     1      49.957  52.248  18.268  1.00  0.00    +0.121 C 
BRANCH   2   3
ATOM      3  C   UNL     1      50.725  53.419  18.837  1.00  0.00    +0.222 C 
ATOM      4  N   UNL     1      50.076  54.047  19.879  1.00  0.00    -0.349 N 
ATOM      5  O   UNL     1      51.805  53.793  18.389  1.00  0.00    -0.275 OA
ATOM      6  H   UNL     1      49.104  53.822  20.044  1.00  0.00    +0.164 HD
BRANCH   4   7
ATOM      7  C   UNL     1      50.581  55.281  20.468  1.00  0.00    +0.115 C 
BRANCH   7   8
ATOM      8  C   UNL     1      51.021  55.051  21.941  1.00  0.00    +0.010 C 
ATOM      9  C   UNL     1      52.090  56.062  22.374  1.00  0.00    +0.010 C 
ATOM     10  C   UNL     1      51.575  53.631  22.139  1.00  0.00    +0.010 C 
ENDBRANCH   7   8
BRANCH   7  11
ATOM     11  C   UNL     1      49.520  56.359  20.276  1.00  0.00    -0.025 A 
ATOM     12  C   UNL     1      49.196  57.203  21.355  1.00  0.00    +0.009 A 
ATOM     13  C   UNL     1      48.889  56.577  19.039  1.00  0.00    +0.009 A 
ATOM     14  C   UNL     1      48.246  58.216  21.208  1.00  0.00    +0.039 A 
ATOM     15  C   UNL     1      47.939  57.590  18.894  1.00  0.00    +0.039 A 
ATOM     16  C   UNL     1      47.625  58.398  19.979  1.00  0.00    +0.123 A 
ATOM     17  F   UNL     1      46.717  59.372  19.837  1.00  0.00    -0.207 F 
ENDBRANCH   7  11
ENDBRANCH   4   7
ENDBRANCH   2   3
ENDBRANCH   1   2
BRANCH   1  18
ATOM     18  N   UNL     1      50.450  50.066  17.202  1.00  0.00    -0.379 N 
ATOM     19  H   UNL     1      50.759  50.491  16.322  1.00  0.00    +0.160 HD
BRANCH  18  20
ATOM     20  C   UNL     1      49.202  49.433  17.083  1.00  0.00    +0.113 A 
ATOM     21  C   UNL     1      48.509  48.990  18.225  1.00  0.00    +0.034 A 
ATOM     22  C   UNL     1      48.639  49.077  15.833  1.00  0.00    +0.293 A 
ATOM     23  C   UNL     1      47.298  48.292  18.137  1.00  0.00    +0.024 A 
ATOM     24  C   UNL     1      47.423  48.375  15.727  1.00  0.00    +0.109 A 
ATOM     25  C   UNL     1      46.754  48.000  16.889  1.00  0.00    +0.089 A 
BRANCH  22  26
ATOM     26  N   UNL     1      49.291  49.468  14.582  1.00  0.00    +0.065 N 
ATOM     27  O   UNL     1      50.503  49.224  14.460  1.00  0.00    -0.258 OA
ATOM     28  O   UNL     1      48.601  50.048  13.731  1.00  0.00    -0.258 OA
ENDBRANCH  22  26
BRANCH  25  29
ATOM     29  S   UNL     1      45.228  47.104  16.798  1.00  0.00    +0.238 S 
ATOM     30  O   UNL     1      45.464  45.890  16.057  1.00  0.00    -0.207 OA
ATOM     31  O   UNL     1      44.174  48.034  16.464  1.00  0.00    -0.207 OA
BRANCH  29  32
ATOM     32  N   UNL     1      44.972  46.697  18.410  1.00  0.00    -0.225 NA
ATOM     33  H   UNL     1      45.699  47.026  19.045  1.00  0.00    +0.137 HD
ATOM     34  H   UNL     1      44.038  47.003  18.690  1.00  0.00    +0.137 HD
ENDBRANCH  29  32
ENDBRANCH  25  29
ENDBRANCH  18  20
ENDBRANCH   1  18
TORSDOF 10
ENDMDL
MODEL 5
REMARK VINA RESULT:    -8.112      2.737      4.022
REMARK INTER + INTRA:         -15.143
REMARK INTER:                 -13.723
REMARK INTRA:                  -1.420
REMARK UNBOUND:                -2.526
REMARK SMILES CC(C)[C@@H](NC(=O)CCNc1ccc(S(N)(=O)=O)cc1[N+](=O)[O-])c1ccc(F)cc1
REMARK SMILES IDX 9 1 8 2 6 3 5 4 7 5 4 7 2 8 1 9 3 10 24 11 25 12 30 13 26 14
REMARK SMILES IDX 29 15 27 16 28 17 10 18 11 20 12 21 20 22 13 23 19 24 14 25
REMARK SMILES IDX 21 26 22 27 23 28 15 29 17 30 18 31 16 32
REMARK H PARENT 5 6 10 19 16 33 16 34
ROOT
ATOM      1  C   UNL     1      51.536  51.294  21.429  1.00  0.00    +0.123 C 
ENDROOT
BRANCH   1   2
ATOM      2  C   UNL     1      50.705  50.107  20.955  1.00  0.00    +0.121 C 
BRANCH   2   3
ATOM      3  C   UNL     1      50.643  50.017  19.447  1.00  0.00    +0.222 C 
ATOM      4  N   UNL     1      49.370  49.802  18.962  1.00  0.00    -0.349 N 
ATOM      5  O   UNL     1      51.636  50.095  18.731  1.00  0.00    -0.275 OA
ATOM      6  H   UNL     1      48.646  49.533  19.615  1.00  0.00    +0.164 HD
BRANCH   4   7
ATOM      7  C   UNL     1      49.119  49.543  17.549  1.00  0.00    +0.115 C 
BRANCH   7   8
ATOM      8  C   UNL     1      49.081  50.871  16.742  1.00  0.00    +0.010 C 
ATOM      9  C   UNL     1      47.829  51.694  17.072  1.00  0.00    +0.010 C 
ATOM     10  C   UNL     1      49.111  50.603  15.229  1.00  0.00    +0.010 C 
ENDBRANCH   7   8
BRANCH   7  11
ATOM     11  C   UNL     1      47.858  48.693  17.447  1.00  0.00    -0.025 A 
ATOM     12  C   UNL     1      47.657  47.897  16.304  1.00  0.00    +0.009 A 
ATOM     13  C   UNL     1      46.909  48.634  18.483  1.00  0.00    +0.009 A 
ATOM     14  C   UNL     1      46.525  47.088  16.188  1.00  0.00    +0.039 A 
ATOM     15  C   UNL     1      45.777  47.825  18.364  1.00  0.00    +0.039 A 
ATOM     16  C   UNL     1      45.594  47.062  17.218  1.00  0.00    +0.123 A 
ATOM     17  F   UNL     1      44.510  46.283  17.108  1.00  0.00    -0.207 F 
ENDBRANCH   7  11
ENDBRANCH   4   7
ENDBRANCH   2   3
ENDBRANCH   1   2
BRANCH   1  18
ATOM     18  N   UNL     1      50.785  52.555  21.329  1.00  0.00    -0.379 N 
ATOM     19  H   UNL     1      50.070  52.495  20.596  1.00  0.00    +0.160 HD
BRANCH  18  20
ATOM     20  C   UNL     1      51.444  53.795  21.335  1.00  0.00    +0.113 A 
ATOM     21  C   UNL     1      51.494  54.578  22.504  1.00  0.00    +0.034 A 
ATOM     22  C   UNL     1      51.962  54.394  20.160  1.00  0.00    +0.293 A 
ATOM     23  C   UNL     1      52.079  55.850  22.525  1.00  0.00    +0.024 A 
ATOM     24  C   UNL     1      52.553  55.672  20.163  1.00  0.00    +0.109 A 
ATOM     25  C   UNL     1      52.618  56.385  21.358  1.00  0.00    +0.089 A 
BRANCH  22  26
ATOM     26  N   UNL     1      51.939  53.676  18.884  1.00  0.00    +0.065 N 
ATOM     27  O   UNL     1      50.831  53.393  18.399  1.00  0.00    -0.258 OA
ATOM     28  O   UNL     1      53.027  53.367  18.379  1.00  0.00    -0.258 OA
ENDBRANCH  22  26
BRANCH  25  29
ATOM     29  S   UNL     1      53.342  58.002  21.401  1.00  0.00    +0.238 S 
ATOM     30  O   UNL     1      52.297  58.954  21.685  1.00  0.00    -0.207 OA
ATOM     31  O   UNL     1      54.233  58.131  20.271  1.00  0.00    -0.207 OA
BRANCH  29  32
ATOM     32  N   UNL     1      54.341  57.895  22.750  1.00  0.00    -0.225 NA
ATOM     33  H   UNL     1      53.899  58.186  23.621  1.00  0.00    +0.137 HD
ATOM     34  H   UNL     1      54.733  56.953  22.804  1.00  0.00    +0.137 HD
ENDBRANCH  29  32
ENDBRANCH  25  29
ENDBRANCH  18  20
ENDBRANCH   1  18
TORSDOF 10
ENDMDL
