MODEL 1
REMARK VINA RESULT:    -8.480      0.000      0.000
REMARK INTER + INTRA:         -12.099
REMARK INTER:                 -11.455
REMARK INTRA:                  -0.644
REMARK UNBOUND:                -0.644
REMARK SMILES CCc1nnc(NC(=O)CCNC(=O)NC2CCCCC2)s1
REMARK SMILES IDX 7 1 8 2 9 3 6 5 3 6 4 7 22 8 5 9 2 10 1 11 10 12 11 13 12 14
REMARK SMILES IDX 13 15 14 16 15 17 16 20 17 21 21 22 18 23 20 24 19 25
REMARK H PARENT 7 4 12 18 15 19
ROOT
ATOM      1  N   UNL     1      52.038  53.569  20.587  1.00  0.00    -0.300 N 
ATOM      2  C   UNL     1      51.773  52.283  21.006  1.00  0.00    +0.227 C 
ATOM      3  O   UNL     1      51.043  51.945  21.930  1.00  0.00    -0.275 OA
ATOM      4  H   UNL     1      52.654  53.722  19.801  1.00  0.00    +0.172 HD
ENDROOT
BRANCH   1   5
ATOM      5  C   UNL     1      51.526  54.729  21.110  1.00  0.00    +0.212 A 
ATOM      6  C   UNL     1      50.362  56.702  21.718  1.00  0.00    +0.119 A 
ATOM      7  N   UNL     1      51.392  56.474  22.506  1.00  0.00    -0.142 NA
ATOM      8  S   UNL     1      50.150  55.519  20.491  1.00  0.00    -0.080 S 
ATOM      9  N   UNL     1      52.069  55.324  22.149  1.00  0.00    -0.120 NA
BRANCH   6  10
ATOM     10  C   UNL     1      49.437  57.865  21.843  1.00  0.00    +0.066 C 
ATOM     11  C   UNL     1      48.203  57.694  20.972  1.00  0.00    +0.011 C 
ENDBRANCH   6  10
ENDBRANCH   1   5
BRANCH   2  12
ATOM     12  C   UNL     1      52.546  51.268  20.185  1.00  0.00    +0.121 C 
BRANCH  12  13
ATOM     13  C   UNL     1      52.320  51.474  18.691  1.00  0.00    +0.127 C 
BRANCH  13  14
ATOM     14  N   UNL     1      51.486  50.439  18.099  1.00  0.00    -0.338 N 
ATOM     15  C   UNL     1      50.119  50.577  18.081  1.00  0.00    +0.315 C 
ATOM     16  O   UNL     1      49.520  51.579  18.444  1.00  0.00    -0.249 OA
ATOM     17  N   UNL     1      49.522  49.440  17.597  1.00  0.00    -0.335 N 
ATOM     18  H   UNL     1      51.779  49.489  18.281  1.00  0.00    +0.165 HD
ATOM     19  H   UNL     1      50.092  48.921  16.946  1.00  0.00    +0.165 HD
BRANCH  17  20
ATOM     20  C   UNL     1      48.081  49.381  17.393  1.00  0.00    +0.083 C 
ATOM     21  C   UNL     1      47.392  48.804  18.639  1.00  0.00    +0.025 C 
ATOM     22  C   UNL     1      47.722  48.574  16.141  1.00  0.00    +0.025 C 
ATOM     23  C   UNL     1      46.041  48.146  18.346  1.00  0.00    +0.002 C 
ATOM     24  C   UNL     1      46.217  48.588  15.865  1.00  0.00    +0.002 C 
ATOM     25  C   UNL     1      45.365  48.751  17.125  1.00  0.00    +0.000 C 
ENDBRANCH  17  20
ENDBRANCH  13  14
ENDBRANCH  12  13
ENDBRANCH   2  12
TORSDOF 6
ENDMDL
MODEL 2
REMARK VINA RESULT:    -7.754      1.792      1.982
REMARK INTER + INTRA:         -11.117
REMARK INTER:                 -10.237
REMARK INTRA:                  -0.881
REMARK UNBOUND:                -0.644
REMARK SMILES CCc1nnc(NC(=O)CCNC(=O)NC2CCCCC2)s1
REMARK SMILES IDX 7 1 8 2 9 3 6 5 3 6 4 7 22 8 5 9 2 10 1 11 10 12 11 13 12 14
REMARK SMILES IDX 13 15 14 16 15 17 16 20 17 21 21 22 18 23 20 24 19 25
REMARK H PARENT 7 4 12 18 15 19
ROOT
ATOM      1  N   UNL     1      50.632  53.536  19.664  1.00  0.00    -0.300 N 
ATOM      2  C   UNL     1      51.922  53.481  19.183  1.00  0.00    +0.227 C 
ATOM      3  O   UNL     1      52.591  54.417  18.762  1.00  0.00    -0.275 OA
ATOM      4  H   UNL     1      50.186  52.691  19.995  1.00  0.00    +0.172 HD
ENDROOT
BRANCH   1   5
ATOM      5  C   UNL     1      49.841  54.650  19.782  1.00  0.00    +0.212 A 
ATOM      6  C   UNL     1      48.708  56.664  20.306  1.00  0.00    +0.119 A 
ATOM      7  N   UNL     1      48.189  56.066  19.254  1.00  0.00    -0.142 NA
ATOM      8  S   UNL     1      50.045  55.832  20.991  1.00  0.00    -0.080 S 
ATOM      9  N   UNL     1      48.850  54.892  18.951  1.00  0.00    -0.120 NA
BRANCH   6  10
ATOM     10  C   UNL     1      48.214  57.948  20.884  1.00  0.00    +0.066 C 
ATOM     11  C   UNL     1      49.028  58.363  22.099  1.00  0.00    +0.011 C 
ENDBRANCH   6  10
ENDBRANCH   1   5
BRANCH   2  12
ATOM     12  C   UNL     1      52.454  52.061  19.196  1.00  0.00    +0.121 C 
BRANCH  12  13
ATOM     13  C   UNL     1      52.385  51.429  17.810  1.00  0.00    +0.127 C 
BRANCH  13  14
ATOM     14  N   UNL     1      51.469  50.300  17.751  1.00  0.00    -0.338 N 
ATOM     15  C   UNL     1      50.115  50.512  17.653  1.00  0.00    +0.315 C 
ATOM     16  O   UNL     1      49.596  51.609  17.505  1.00  0.00    -0.249 OA
ATOM     17  N   UNL     1      49.430  49.326  17.739  1.00  0.00    -0.335 N 
ATOM     18  H   UNL     1      51.699  49.523  18.354  1.00  0.00    +0.165 HD
ATOM     19  H   UNL     1      49.949  48.526  17.407  1.00  0.00    +0.165 HD
BRANCH  17  20
ATOM     20  C   UNL     1      47.984  49.284  17.565  1.00  0.00    +0.083 C 
ATOM     21  C   UNL     1      47.319  48.672  18.808  1.00  0.00    +0.025 C 
ATOM     22  C   UNL     1      47.592  48.517  16.298  1.00  0.00    +0.025 C 
ATOM     23  C   UNL     1      45.957  48.033  18.526  1.00  0.00    +0.002 C 
ATOM     24  C   UNL     1      46.082  48.550  16.056  1.00  0.00    +0.002 C 
ATOM     25  C   UNL     1      45.258  48.680  17.339  1.00  0.00    +0.000 C 
ENDBRANCH  17  20
ENDBRANCH  13  14
ENDBRANCH  12  13
ENDBRANCH   2  12
TORSDOF 6
ENDMDL
MODEL 3
REMARK VINA RESULT:    -7.306      1.928      2.233
REMARK INTER + INTRA:         -10.513
REMARK INTER:                  -9.605
REMARK INTRA:                  -0.908
REMARK UNBOUND:                -0.644
REMARK SMILES CCc1nnc(NC(=O)CCNC(=O)NC2CCCCC2)s1
REMARK SMILES IDX 7 1 8 2 9 3 6 5 3 6 4 7 22 8 5 9 2 10 1 11 10 12 11 13 12 14
REMARK SMILES IDX 13 15 14 16 15 17 16 20 17 21 21 22 18 23 20 24 19 25
REMARK H PARENT 7 4 12 18 15 19
ROOT
ATOM      1  N   UNL     1      50.834  52.963  20.644  1.00  0.00    -0.300 N 
ATOM      2  C   UNL     1      52.024  52.432  20.195  1.00  0.00    +0.227 C 
ATOM      3  O   UNL     1      52.738  52.875  19.304  1.00  0.00    -0.275 OA
ATOM      4  H   UNL     1      50.337  52.508  21.399  1.00  0.00    +0.172 HD
ENDROOT
BRANCH   1   5
ATOM      5  C   UNL     1      50.216  54.102  20.197  1.00  0.00    +0.212 A 
ATOM      6  C   UNL     1      49.075  55.857  19.086  1.00  0.00    +0.119 A 
ATOM      7  N   UNL     1      49.481  56.215  20.287  1.00  0.00    -0.142 NA
ATOM      8  S   UNL     1      49.476  54.240  18.669  1.00  0.00    -0.080 S 
ATOM      9  N   UNL     1      50.146  55.191  20.932  1.00  0.00    -0.120 NA
BRANCH   6  10
ATOM     10  C   UNL     1      48.332  56.741  18.142  1.00  0.00    +0.066 C 
ATOM     11  C   UNL     1      47.917  58.044  18.806  1.00  0.00    +0.011 C 
ENDBRANCH   6  10
ENDBRANCH   1   5
BRANCH   2  12
ATOM     12  C   UNL     1      52.367  51.150  20.931  1.00  0.00    +0.121 C 
BRANCH  12  13
ATOM     13  C   UNL     1      52.480  49.971  19.971  1.00  0.00    +0.127 C 
BRANCH  13  14
ATOM     14  N   UNL     1      51.622  50.110  18.805  1.00  0.00    -0.338 N 
ATOM     15  C   UNL     1      50.386  49.510  18.779  1.00  0.00    +0.315 C 
ATOM     16  O   UNL     1      49.881  48.928  19.728  1.00  0.00    -0.249 OA
ATOM     17  N   UNL     1      49.798  49.659  17.548  1.00  0.00    -0.335 N 
ATOM     18  H   UNL     1      52.093  50.069  17.912  1.00  0.00    +0.165 HD
ATOM     19  H   UNL     1      50.084  50.492  17.054  1.00  0.00    +0.165 HD
BRANCH  17  20
ATOM     20  C   UNL     1      48.441  49.189  17.306  1.00  0.00    +0.083 C 
ATOM     21  C   UNL     1      48.340  48.560  15.907  1.00  0.00    +0.025 C 
ATOM     22  C   UNL     1      47.417  50.315  17.478  1.00  0.00    +0.025 C 
ATOM     23  C   UNL     1      46.927  48.592  15.319  1.00  0.00    +0.002 C 
ATOM     24  C   UNL     1      45.982  49.809  17.320  1.00  0.00    +0.002 C 
ATOM     25  C   UNL     1      45.858  48.593  16.401  1.00  0.00    +0.000 C 
ENDBRANCH  17  20
ENDBRANCH  13  14
ENDBRANCH  12  13
ENDBRANCH   2  12
TORSDOF 6
ENDMDL
MODEL 4
REMARK VINA RESULT:    -6.956      2.367      7.649
REMARK INTER + INTRA:         -10.040
REMARK INTER:                  -9.546
REMARK INTRA:                  -0.494
REMARK UNBOUND:                -0.644
REMARK SMILES CCc1nnc(NC(=O)CCNC(=O)NC2CCCCC2)s1
REMARK SMILES IDX 7 1 8 2 9 3 6 5 3 6 4 7 22 8 5 9 2 10 1 11 10 12 11 13 12 14
REMARK SMILES IDX 13 15 14 16 15 17 16 20 17 21 21 22 18 23 20 24 19 25
REMARK H PARENT 7 4 12 18 15 19
ROOT
ATOM      1  N   UNL     1      50.026  49.585  18.626  1.00  0.00    -0.300 N 
ATOM      2  C   UNL     1      50.997  50.548  18.456  1.00  0.00    +0.227 C 
ATOM      3  O   UNL     1      51.000  51.451  17.628  1.00  0.00    -0.275 OA
ATOM      4  H   UNL     1      50.131  48.892  19.356  1.00  0.00    +0.172 HD
ENDROOT
BRANCH   1   5
ATOM      5  C   UNL     1      48.860  49.452  17.916  1.00  0.00    +0.212 A 
ATOM      6  C   UNL     1      46.904  48.823  16.735  1.00  0.00    +0.119 A 
ATOM      7  N   UNL     1      47.047  50.131  16.791  1.00  0.00    -0.142 NA
ATOM      8  S   UNL     1      48.154  47.952  17.528  1.00  0.00    -0.080 S 
ATOM      9  N   UNL     1      48.188  50.495  17.478  1.00  0.00    -0.120 NA
BRANCH   6  10
ATOM     10  C   UNL     1      45.776  48.120  16.059  1.00  0.00    +0.066 C 
ATOM     11  C   UNL     1      44.648  47.810  17.031  1.00  0.00    +0.011 C 
ENDBRANCH   6  10
ENDBRANCH   1   5
BRANCH   2  12
ATOM     12  C   UNL     1      52.145  50.349  19.428  1.00  0.00    +0.121 C 
BRANCH  12  13
ATOM     13  C   UNL     1      52.743  51.683  19.862  1.00  0.00    +0.127 C 
BRANCH  13  14
ATOM     14  N   UNL     1      51.790  52.523  20.569  1.00  0.00    -0.338 N 
ATOM     15  C   UNL     1      51.459  53.763  20.075  1.00  0.00    +0.315 C 
ATOM     16  O   UNL     1      51.835  54.200  18.997  1.00  0.00    -0.249 OA
ATOM     17  N   UNL     1      50.649  54.437  20.954  1.00  0.00    -0.335 N 
ATOM     18  H   UNL     1      51.867  52.514  21.576  1.00  0.00    +0.165 HD
ATOM     19  H   UNL     1      50.077  53.836  21.529  1.00  0.00    +0.165 HD
BRANCH  17  20
ATOM     20  C   UNL     1      50.088  55.736  20.608  1.00  0.00    +0.083 C 
ATOM     21  C   UNL     1      50.326  56.736  21.750  1.00  0.00    +0.025 C 
ATOM     22  C   UNL     1      48.598  55.633  20.267  1.00  0.00    +0.025 C 
ATOM     23  C   UNL     1      49.311  57.882  21.785  1.00  0.00    +0.002 C 
ATOM     24  C   UNL     1      48.024  56.975  19.810  1.00  0.00    +0.002 C 
ATOM     25  C   UNL     1      48.745  58.185  20.406  1.00  0.00    +0.000 C 
ENDBRANCH  17  20
ENDBRANCH  13  14
ENDBRANCH  12  13
ENDBRANCH   2  12
TORSDOF 6
ENDMDL
MODEL 5
REMARK VINA RESULT:    -6.707      3.032      3.713
REMARK INTER + INTRA:          -9.703
REMARK INTER:                  -9.308
REMARK INTRA:                  -0.395
REMARK UNBOUND:                -0.644
REMARK SMILES CCc1nnc(NC(=O)CCNC(=O)NC2CCCCC2)s1
REMARK SMILES IDX 7 1 8 2 9 3 6 5 3 6 4 7 22 8 5 9 2 10 1 11 10 12 11 13 12 14
REMARK SMILES IDX 13 15 14 16 15 17 16 20 17 21 21 22 18 23 20 24 19 25
REMARK H PARENT 7 4 12 18 15 19
ROOT
ATOM      1  N   UNL     1      48.780  55.753  19.659  1.00  0.00    -0.300 N 
ATOM      2  C   UNL     1      49.977  55.471  20.281  1.00  0.00    +0.227 C 
ATOM      3  O   UNL     1      50.829  56.277  20.637  1.00  0.00    -0.275 OA
ATOM      4  H   UNL     1      48.151  54.998  19.421  1.00  0.00    +0.172 HD
ENDROOT
BRANCH   1   5
ATOM      5  C   UNL     1      48.292  56.992  19.328  1.00  0.00    +0.212 A 
ATOM      6  C   UNL     1      47.470  59.207  19.154  1.00  0.00    +0.119 A 
ATOM      7  N   UNL     1      47.547  58.616  17.980  1.00  0.00    -0.142 NA
ATOM      8  S   UNL     1      47.986  58.223  20.464  1.00  0.00    -0.080 S 
ATOM      9  N   UNL     1      48.025  57.325  18.084  1.00  0.00    -0.120 NA
BRANCH   6  10
ATOM     10  C   UNL     1      46.988  60.601  19.374  1.00  0.00    +0.066 C 
ATOM     11  C   UNL     1      45.548  60.773  18.916  1.00  0.00    +0.011 C 
ENDBRANCH   6  10
ENDBRANCH   1   5
BRANCH   2  12
ATOM     12  C   UNL     1      50.165  53.977  20.461  1.00  0.00    +0.121 C 
BRANCH  12  13
ATOM     13  C   UNL     1      51.114  53.406  19.413  1.00  0.00    +0.127 C 
BRANCH  13  14
ATOM     14  N   UNL     1      50.433  53.018  18.188  1.00  0.00    -0.338 N 
ATOM     15  C   UNL     1      49.867  51.771  18.075  1.00  0.00    +0.315 C 
ATOM     16  O   UNL     1      49.795  50.959  18.986  1.00  0.00    -0.249 OA
ATOM     17  N   UNL     1      49.391  51.566  16.804  1.00  0.00    -0.335 N 
ATOM     18  H   UNL     1      50.872  53.325  17.332  1.00  0.00    +0.165 HD
ATOM     19  H   UNL     1      49.109  52.411  16.330  1.00  0.00    +0.165 HD
BRANCH  17  20
ATOM     20  C   UNL     1      48.662  50.352  16.466  1.00  0.00    +0.083 C 
ATOM     21  C   UNL     1      48.842  50.022  14.976  1.00  0.00    +0.025 C 
ATOM     22  C   UNL     1      47.178  50.468  16.828  1.00  0.00    +0.025 C 
ATOM     23  C   UNL     1      47.702  49.187  14.387  1.00  0.00    +0.002 C 
ATOM     24  C   UNL     1      46.423  49.163  16.566  1.00  0.00    +0.002 C 
ATOM     25  C   UNL     1      47.027  48.321  15.441  1.00  0.00    +0.000 C 
ENDBRANCH  17  20
ENDBRANCH  13  14
ENDBRANCH  12  13
ENDBRANCH   2  12
TORSDOF 6
ENDMDL
