MODEL 1
REMARK VINA RESULT:    -7.337      0.000      0.000
REMARK INTER + INTRA:         -11.456
REMARK INTER:                 -10.769
REMARK INTRA:                  -0.687
REMARK UNBOUND:                -0.687
REMARK SMILES Cc1cc(C)c(OC[C@H](O)C[NH2+]C(C)(C)CO)c(C)c1
REMARK SMILES IDX 11 1 9 2 8 3 7 4 6 5 2 6 20 7 3 8 18 9 4 10 1 11 19 12 5 13
REMARK SMILES IDX 10 14 12 16 13 19 14 20 15 21 16 22 17 23
REMARK H PARENT 10 15 12 17 12 18 17 24
ROOT
ATOM      1  C   UNL     1      52.393  52.330  20.304  1.00  0.00    +0.296 C 
ENDROOT
BRANCH   1   2
ATOM      2  C   UNL     1      52.675  53.402  19.245  1.00  0.00    +0.206 C 
BRANCH   2   3
ATOM      3  C   UNL     1      52.023  54.739  19.595  1.00  0.00    +0.267 C 
BRANCH   3   4
ATOM      4  O   UNL     1      51.041  54.456  20.605  1.00  0.00    -0.490 OA
BRANCH   4   5
ATOM      5  C   UNL     1      50.076  55.434  20.610  1.00  0.00    +0.125 A 
ATOM      6  C   UNL     1      48.121  57.434  20.599  1.00  0.00    -0.050 A 
ATOM      7  C   UNL     1      49.216  57.520  21.467  1.00  0.00    +0.010 A 
ATOM      8  C   UNL     1      47.989  56.309  19.776  1.00  0.00    +0.010 A 
ATOM      9  C   UNL     1      50.195  56.515  21.496  1.00  0.00    -0.008 A 
ATOM     10  C   UNL     1      48.952  55.291  19.782  1.00  0.00    -0.008 A 
ATOM     11  C   UNL     1      47.061  58.496  20.609  1.00  0.00    +0.044 C 
ATOM     12  C   UNL     1      51.352  56.648  22.444  1.00  0.00    +0.048 C 
ATOM     13  C   UNL     1      48.771  54.101  18.885  1.00  0.00    +0.048 C 
ENDBRANCH   4   5
ENDBRANCH   3   4
ENDBRANCH   2   3
BRANCH   2  14
ATOM     14  O   UNL     1      52.167  52.900  17.989  1.00  0.00    -0.384 OA
ATOM     15  H   UNL     1      52.746  52.137  17.758  1.00  0.00    +0.211 HD
ENDBRANCH   2  14
ENDBRANCH   1   2
BRANCH   1  16
ATOM     16  N   UNL     1      51.075  51.690  19.930  1.00  0.00    -0.338 N 
ATOM     17  H   UNL     1      50.449  51.949  20.718  1.00  0.00    +0.346 HD
ATOM     18  H   UNL     1      50.689  52.194  19.123  1.00  0.00    +0.346 HD
BRANCH  16  19
ATOM     19  C   UNL     1      51.007  50.192  19.701  1.00  0.00    +0.114 C 
ATOM     20  C   UNL     1      50.538  49.510  20.993  1.00  0.00    +0.081 C 
ATOM     21  C   UNL     1      49.958  49.976  18.600  1.00  0.00    +0.081 C 
BRANCH  19  22
ATOM     22  C   UNL     1      52.377  49.646  19.221  1.00  0.00    +0.223 C 
BRANCH  22  23
ATOM     23  O   UNL     1      52.835  48.585  20.055  1.00  0.00    -0.390 OA
ATOM     24  H   UNL     1      53.063  48.974  20.923  1.00  0.00    +0.210 HD
ENDBRANCH  22  23
ENDBRANCH  19  22
ENDBRANCH  16  19
ENDBRANCH   1  16
TORSDOF 9
ENDMDL
MODEL 2
REMARK VINA RESULT:    -7.244      2.438      6.435
REMARK INTER + INTRA:         -11.319
REMARK INTER:                 -11.105
REMARK INTRA:                  -0.214
REMARK UNBOUND:                -0.687
REMARK SMILES Cc1cc(C)c(OC[C@H](O)C[NH2+]C(C)(C)CO)c(C)c1
REMARK SMILES IDX 11 1 9 2 8 3 7 4 6 5 2 6 20 7 3 8 18 9 4 10 1 11 19 12 5 13
REMARK SMILES IDX 10 14 12 16 13 19 14 20 15 21 16 22 17 23
REMARK H PARENT 10 15 12 17 12 18 17 24
ROOT
ATOM      1  C   UNL     1      51.961  54.245  20.058  1.00  0.00    +0.296 C 
ENDROOT
BRANCH   1   2
ATOM      2  C   UNL     1      51.343  53.639  18.792  1.00  0.00    +0.206 C 
BRANCH   2   3
ATOM      3  C   UNL     1      50.325  52.547  19.117  1.00  0.00    +0.267 C 
BRANCH   3   4
ATOM      4  O   UNL     1      50.356  51.627  18.015  1.00  0.00    -0.490 OA
BRANCH   4   5
ATOM      5  C   UNL     1      49.219  50.856  18.013  1.00  0.00    +0.125 A 
ATOM      6  C   UNL     1      46.892  49.305  18.025  1.00  0.00    -0.050 A 
ATOM      7  C   UNL     1      48.020  48.893  18.743  1.00  0.00    +0.010 A 
ATOM      8  C   UNL     1      46.959  50.474  17.258  1.00  0.00    +0.010 A 
ATOM      9  C   UNL     1      49.200  49.652  18.732  1.00  0.00    -0.008 A 
ATOM     10  C   UNL     1      48.124  51.254  17.229  1.00  0.00    -0.008 A 
ATOM     11  C   UNL     1      45.650  48.461  18.014  1.00  0.00    +0.044 C 
ATOM     12  C   UNL     1      50.387  49.171  19.516  1.00  0.00    +0.048 C 
ATOM     13  C   UNL     1      48.155  52.499  16.392  1.00  0.00    +0.048 C 
ENDBRANCH   4   5
ENDBRANCH   3   4
ENDBRANCH   2   3
BRANCH   2  14
ATOM     14  O   UNL     1      52.431  53.105  18.006  1.00  0.00    -0.384 OA
ATOM     15  H   UNL     1      53.111  52.820  18.658  1.00  0.00    +0.211 HD
ENDBRANCH   2  14
ENDBRANCH   1   2
BRANCH   1  16
ATOM     16  N   UNL     1      51.523  55.692  20.103  1.00  0.00    -0.338 N 
ATOM     17  H   UNL     1      52.224  56.174  19.505  1.00  0.00    +0.346 HD
ATOM     18  H   UNL     1      50.643  55.779  19.584  1.00  0.00    +0.346 HD
BRANCH  16  19
ATOM     19  C   UNL     1      51.423  56.404  21.439  1.00  0.00    +0.114 C 
ATOM     20  C   UNL     1      50.016  56.998  21.583  1.00  0.00    +0.081 C 
ATOM     21  C   UNL     1      51.634  55.326  22.513  1.00  0.00    +0.081 C 
BRANCH  19  22
ATOM     22  C   UNL     1      52.526  57.486  21.570  1.00  0.00    +0.223 C 
BRANCH  22  23
ATOM     23  O   UNL     1      53.481  57.137  22.569  1.00  0.00    -0.390 OA
ATOM     24  H   UNL     1      53.251  57.635  23.379  1.00  0.00    +0.210 HD
ENDBRANCH  22  23
ENDBRANCH  19  22
ENDBRANCH  16  19
ENDBRANCH   1  16
TORSDOF 9
ENDMDL
MODEL 3
REMARK VINA RESULT:    -7.204      1.686      2.102
REMARK INTER + INTRA:         -11.260
REMARK INTER:                 -10.696
REMARK INTRA:                  -0.564
REMARK UNBOUND:                -0.687
REMARK SMILES Cc1cc(C)c(OC[C@H](O)C[NH2+]C(C)(C)CO)c(C)c1
REMARK SMILES IDX 11 1 9 2 8 3 7 4 6 5 2 6 20 7 3 8 18 9 4 10 1 11 19 12 5 13
REMARK SMILES IDX 10 14 12 16 13 19 14 20 15 21 16 22 17 23
REMARK H PARENT 10 15 12 17 12 18 17 24
ROOT
ATOM      1  C   UNL     1      51.308  51.562  18.797  1.00  0.00    +0.296 C 
ENDROOT
BRANCH   1   2
ATOM      2  C   UNL     1      52.428  52.603  18.906  1.00  0.00    +0.206 C 
BRANCH   2   3
ATOM      3  C   UNL     1      51.894  53.983  19.285  1.00  0.00    +0.267 C 
BRANCH   3   4
ATOM      4  O   UNL     1      50.857  53.762  20.255  1.00  0.00    -0.490 OA
BRANCH   4   5
ATOM      5  C   UNL     1      50.163  54.926  20.476  1.00  0.00    +0.125 A 
ATOM      6  C   UNL     1      48.759  57.307  20.904  1.00  0.00    -0.050 A 
ATOM      7  C   UNL     1      49.904  57.016  21.654  1.00  0.00    +0.010 A 
ATOM      8  C   UNL     1      48.294  56.368  19.975  1.00  0.00    +0.010 A 
ATOM      9  C   UNL     1      50.609  55.818  21.463  1.00  0.00    -0.008 A 
ATOM     10  C   UNL     1      48.978  55.163  19.761  1.00  0.00    -0.008 A 
ATOM     11  C   UNL     1      47.993  58.575  21.149  1.00  0.00    +0.044 C 
ATOM     12  C   UNL     1      51.831  55.547  22.291  1.00  0.00    +0.048 C 
ATOM     13  C   UNL     1      48.445  54.183  18.757  1.00  0.00    +0.048 C 
ENDBRANCH   4   5
ENDBRANCH   3   4
ENDBRANCH   2   3
BRANCH   2  14
ATOM     14  O   UNL     1      53.091  52.647  17.623  1.00  0.00    -0.384 OA
ATOM     15  H   UNL     1      54.013  52.348  17.793  1.00  0.00    +0.211 HD
ENDBRANCH   2  14
ENDBRANCH   1   2
BRANCH   1  16
ATOM     16  N   UNL     1      50.519  51.905  17.553  1.00  0.00    -0.338 N 
ATOM     17  H   UNL     1      49.959  52.731  17.844  1.00  0.00    +0.346 HD
ATOM     18  H   UNL     1      51.169  52.274  16.851  1.00  0.00    +0.346 HD
BRANCH  16  19
ATOM     19  C   UNL     1      49.604  50.865  16.935  1.00  0.00    +0.114 C 
ATOM     20  C   UNL     1      49.061  49.955  18.045  1.00  0.00    +0.081 C 
ATOM     21  C   UNL     1      48.443  51.643  16.299  1.00  0.00    +0.081 C 
BRANCH  19  22
ATOM     22  C   UNL     1      50.348  50.060  15.838  1.00  0.00    +0.223 C 
BRANCH  22  23
ATOM     23  O   UNL     1      51.730  50.403  15.787  1.00  0.00    -0.390 OA
ATOM     24  H   UNL     1      51.889  51.076  16.479  1.00  0.00    +0.210 HD
ENDBRANCH  22  23
ENDBRANCH  19  22
ENDBRANCH  16  19
ENDBRANCH   1  16
TORSDOF 9
ENDMDL
MODEL 4
REMARK VINA RESULT:    -6.925      2.398      3.222
REMARK INTER + INTRA:         -10.851
REMARK INTER:                 -10.109
REMARK INTRA:                  -0.742
REMARK UNBOUND:                -0.687
REMARK SMILES Cc1cc(C)c(OC[C@H](O)C[NH2+]C(C)(C)CO)c(C)c1
REMARK SMILES IDX 11 1 9 2 8 3 7 4 6 5 2 6 20 7 3 8 18 9 4 10 1 11 19 12 5 13
REMARK SMILES IDX 10 14 12 16 13 19 14 20 15 21 16 22 17 23
REMARK H PARENT 10 15 12 17 12 18 17 24
ROOT
ATOM      1  C   UNL     1      50.635  50.386  17.869  1.00  0.00    +0.296 C 
ENDROOT
BRANCH   1   2
ATOM      2  C   UNL     1      51.968  51.059  18.216  1.00  0.00    +0.206 C 
BRANCH   2   3
ATOM      3  C   UNL     1      51.770  52.444  18.830  1.00  0.00    +0.267 C 
BRANCH   3   4
ATOM      4  O   UNL     1      50.522  52.394  19.539  1.00  0.00    -0.490 OA
BRANCH   4   5
ATOM      5  C   UNL     1      50.130  53.663  19.891  1.00  0.00    +0.125 A 
ATOM      6  C   UNL     1      49.347  56.256  20.589  1.00  0.00    -0.050 A 
ATOM      7  C   UNL     1      50.260  55.554  21.385  1.00  0.00    +0.010 A 
ATOM      8  C   UNL     1      48.790  55.625  19.470  1.00  0.00    +0.010 A 
ATOM      9  C   UNL     1      50.649  54.247  21.057  1.00  0.00    -0.008 A 
ATOM     10  C   UNL     1      49.160  54.320  19.117  1.00  0.00    -0.008 A 
ATOM     11  C   UNL     1      48.910  57.639  20.976  1.00  0.00    +0.044 C 
ATOM     12  C   UNL     1      51.629  53.531  21.940  1.00  0.00    +0.048 C 
ATOM     13  C   UNL     1      48.537  53.679  17.911  1.00  0.00    +0.048 C 
ENDBRANCH   4   5
ENDBRANCH   3   4
ENDBRANCH   2   3
BRANCH   2  14
ATOM     14  O   UNL     1      52.727  51.149  16.989  1.00  0.00    -0.384 OA
ATOM     15  H   UNL     1      52.352  50.458  16.397  1.00  0.00    +0.211 HD
ENDBRANCH   2  14
ENDBRANCH   1   2
BRANCH   1  16
ATOM     16  N   UNL     1      50.262  50.856  16.481  1.00  0.00    -0.338 N 
ATOM     17  H   UNL     1      49.643  51.671  16.661  1.00  0.00    +0.346 HD
ATOM     18  H   UNL     1      51.096  51.262  16.043  1.00  0.00    +0.346 HD
BRANCH  16  19
ATOM     19  C   UNL     1      49.574  49.899  15.525  1.00  0.00    +0.114 C 
ATOM     20  C   UNL     1      49.271  48.589  16.263  1.00  0.00    +0.081 C 
ATOM     21  C   UNL     1      48.255  50.575  15.122  1.00  0.00    +0.081 C 
BRANCH  19  22
ATOM     22  C   UNL     1      50.441  49.665  14.261  1.00  0.00    +0.223 C 
BRANCH  22  23
ATOM     23  O   UNL     1      51.762  50.171  14.435  1.00  0.00    -0.390 OA
ATOM     24  H   UNL     1      52.376  49.524  14.033  1.00  0.00    +0.210 HD
ENDBRANCH  22  23
ENDBRANCH  19  22
ENDBRANCH  16  19
ENDBRANCH   1  16
TORSDOF 9
ENDMDL
MODEL 5
REMARK VINA RESULT:    -6.917      1.824      3.007
REMARK INTER + INTRA:         -10.839
REMARK INTER:                 -10.336
REMARK INTRA:                  -0.503
REMARK UNBOUND:                -0.687
REMARK SMILES Cc1cc(C)c(OC[C@H](O)C[NH2+]C(C)(C)CO)c(C)c1
REMARK SMILES IDX 11 1 9 2 8 3 7 4 6 5 2 6 20 7 3 8 18 9 4 10 1 11 19 12 5 13
REMARK SMILES IDX 10 14 12 16 13 19 14 20 15 21 16 22 17 23
REMARK H PARENT 10 15 12 17 12 18 17 24
ROOT
ATOM      1  C   UNL     1      51.345  51.128  18.451  1.00  0.00    +0.296 C 
ENDROOT
BRANCH   1   2
ATOM      2  C   UNL     1      52.318  52.305  18.582  1.00  0.00    +0.206 C 
BRANCH   2   3
ATOM      3  C   UNL     1      51.588  53.637  18.750  1.00  0.00    +0.267 C 
BRANCH   3   4
ATOM      4  O   UNL     1      50.548  53.408  19.714  1.00  0.00    -0.490 OA
BRANCH   4   5
ATOM      5  C   UNL     1      49.985  54.602  20.092  1.00  0.00    +0.125 A 
ATOM      6  C   UNL     1      48.827  57.022  20.881  1.00  0.00    -0.050 A 
ATOM      7  C   UNL     1      48.334  56.332  19.768  1.00  0.00    +0.010 A 
ATOM      8  C   UNL     1      49.941  56.515  21.562  1.00  0.00    +0.010 A 
ATOM      9  C   UNL     1      48.916  55.126  19.350  1.00  0.00    -0.008 A 
ATOM     10  C   UNL     1      50.542  55.311  21.168  1.00  0.00    -0.008 A 
ATOM     11  C   UNL     1      48.219  58.333  21.291  1.00  0.00    +0.044 C 
ATOM     12  C   UNL     1      48.355  54.420  18.150  1.00  0.00    +0.048 C 
ATOM     13  C   UNL     1      51.735  54.803  21.924  1.00  0.00    +0.048 C 
ENDBRANCH   4   5
ENDBRANCH   3   4
ENDBRANCH   2   3
BRANCH   2  14
ATOM     14  O   UNL     1      53.131  52.316  17.388  1.00  0.00    -0.384 OA
ATOM     15  H   UNL     1      53.339  51.372  17.203  1.00  0.00    +0.211 HD
ENDBRANCH   2  14
ENDBRANCH   1   2
BRANCH   1  16
ATOM     16  N   UNL     1      50.467  51.424  17.256  1.00  0.00    -0.338 N 
ATOM     17  H   UNL     1      50.033  52.338  17.497  1.00  0.00    +0.346 HD
ATOM     18  H   UNL     1      51.073  51.634  16.455  1.00  0.00    +0.346 HD
BRANCH  16  19
ATOM     19  C   UNL     1      49.385  50.438  16.858  1.00  0.00    +0.114 C 
ATOM     20  C   UNL     1      49.115  49.491  18.034  1.00  0.00    +0.081 C 
ATOM     21  C   UNL     1      48.128  51.275  16.578  1.00  0.00    +0.081 C 
BRANCH  19  22
ATOM     22  C   UNL     1      49.787  49.668  15.573  1.00  0.00    +0.223 C 
BRANCH  22  23
ATOM     23  O   UNL     1      51.075  50.066  15.109  1.00  0.00    -0.390 OA
ATOM     24  H   UNL     1      51.243  50.966  15.453  1.00  0.00    +0.210 HD
ENDBRANCH  22  23
ENDBRANCH  19  22
ENDBRANCH  16  19
ENDBRANCH   1  16
TORSDOF 9
ENDMDL
