MODEL 1
REMARK VINA RESULT:    -8.597      0.000      0.000
REMARK INTER + INTRA:         -12.219
REMARK INTER:                 -11.613
REMARK INTRA:                  -0.606
REMARK UNBOUND:                -0.606
REMARK SMILES Cc1ccc(S(=O)(=O)NC2CC2)cc1C(=O)NNC(=S)NC1CCCC1
REMARK SMILES IDX 1 1 2 2 3 3 4 4 5 5 13 6 14 7 15 8 16 9 17 10 18 12 19 13
REMARK SMILES IDX 20 14 21 15 22 18 23 19 26 20 24 21 25 22 6 23 7 24 8 25
REMARK SMILES IDX 9 26 10 28 11 29 12 30
REMARK H PARENT 17 11 18 16 21 17 9 27
ROOT
ATOM      1  C   UNL     1      50.886  49.654  20.811  1.00  0.00    +0.045 C 
ATOM      2  C   UNL     1      51.014  51.147  20.675  1.00  0.00    -0.038 A 
ATOM      3  C   UNL     1      51.480  51.882  21.780  1.00  0.00    +0.005 A 
ATOM      4  C   UNL     1      51.652  53.266  21.700  1.00  0.00    +0.022 A 
ATOM      5  C   UNL     1      51.359  53.928  20.508  1.00  0.00    +0.083 A 
ATOM      6  C   UNL     1      50.866  53.226  19.408  1.00  0.00    +0.036 A 
ATOM      7  C   UNL     1      50.680  51.841  19.495  1.00  0.00    +0.045 A 
ENDROOT
BRANCH   7   8
ATOM      8  C   UNL     1      50.131  51.180  18.287  1.00  0.00    +0.269 C 
ATOM      9  O   UNL     1      50.874  50.802  17.386  1.00  0.00    -0.267 OA
ATOM     10  N   UNL     1      48.756  51.093  18.230  1.00  0.00    -0.264 N 
ATOM     11  H   UNL     1      48.145  51.574  18.886  1.00  0.00    +0.191 HD
BRANCH  10  12
ATOM     12  N   UNL     1      48.177  50.661  17.032  1.00  0.00    -0.274 N 
ATOM     13  C   UNL     1      47.447  49.480  16.963  1.00  0.00    +0.185 C 
ATOM     14  S   UNL     1      47.102  48.547  18.312  1.00  0.00    -0.039 S 
ATOM     15  N   UNL     1      47.044  49.236  15.664  1.00  0.00    -0.359 N 
ATOM     16  H   UNL     1      48.540  51.120  16.199  1.00  0.00    +0.190 HD
ATOM     17  H   UNL     1      47.284  49.959  15.001  1.00  0.00    +0.163 HD
BRANCH  15  18
ATOM     18  C   UNL     1      46.221  48.166  15.108  1.00  0.00    +0.081 C 
ATOM     19  C   UNL     1      44.813  48.038  15.693  1.00  0.00    +0.025 C 
ATOM     20  C   UNL     1      46.066  48.172  13.580  1.00  0.00    +0.025 C 
ATOM     21  C   UNL     1      44.030  47.351  14.585  1.00  0.00    +0.002 C 
ATOM     22  C   UNL     1      44.571  47.998  13.318  1.00  0.00    +0.002 C 
ENDBRANCH  15  18
ENDBRANCH  10  12
ENDBRANCH   7   8
BRANCH   5  23
ATOM     23  S   UNL     1      51.555  55.687  20.391  1.00  0.00    +0.240 S 
ATOM     24  O   UNL     1      52.729  56.059  21.150  1.00  0.00    -0.207 OA
ATOM     25  O   UNL     1      51.398  56.068  19.003  1.00  0.00    -0.207 OA
BRANCH  23  26
ATOM     26  N   UNL     1      50.154  56.224  21.181  1.00  0.00    -0.208 NA
ATOM     27  H   UNL     1      49.644  55.415  21.541  1.00  0.00    +0.141 HD
BRANCH  26  28
ATOM     28  C   UNL     1      49.324  57.179  20.440  1.00  0.00    +0.070 C 
ATOM     29  C   UNL     1      47.891  56.843  20.134  1.00  0.00    +0.022 C 
ATOM     30  C   UNL     1      48.213  57.922  21.126  1.00  0.00    +0.022 C 
ENDBRANCH  26  28
ENDBRANCH  23  26
ENDBRANCH   5  23
TORSDOF 6
ENDMDL
MODEL 2
REMARK VINA RESULT:    -8.388      3.185      8.803
REMARK INTER + INTRA:         -11.936
REMARK INTER:                 -11.427
REMARK INTRA:                  -0.510
REMARK UNBOUND:                -0.606
REMARK SMILES Cc1ccc(S(=O)(=O)NC2CC2)cc1C(=O)NNC(=S)NC1CCCC1
REMARK SMILES IDX 1 1 2 2 3 3 4 4 5 5 13 6 14 7 15 8 16 9 17 10 18 12 19 13
REMARK SMILES IDX 20 14 21 15 22 18 23 19 26 20 24 21 25 22 6 23 7 24 8 25
REMARK SMILES IDX 9 26 10 28 11 29 12 30
REMARK H PARENT 17 11 18 16 21 17 9 27
ROOT
ATOM      1  C   UNL     1      51.643  55.597  22.898  1.00  0.00    +0.045 C 
ATOM      2  C   UNL     1      51.287  54.750  21.707  1.00  0.00    -0.038 A 
ATOM      3  C   UNL     1      51.787  53.437  21.645  1.00  0.00    +0.005 A 
ATOM      4  C   UNL     1      51.461  52.594  20.580  1.00  0.00    +0.022 A 
ATOM      5  C   UNL     1      50.627  53.061  19.564  1.00  0.00    +0.083 A 
ATOM      6  C   UNL     1      50.143  54.369  19.586  1.00  0.00    +0.036 A 
ATOM      7  C   UNL     1      50.484  55.217  20.647  1.00  0.00    +0.045 A 
ENDROOT
BRANCH   7   8
ATOM      8  C   UNL     1      49.946  56.597  20.577  1.00  0.00    +0.269 C 
ATOM      9  O   UNL     1      50.699  57.566  20.615  1.00  0.00    -0.267 OA
ATOM     10  N   UNL     1      48.572  56.699  20.541  1.00  0.00    -0.264 N 
ATOM     11  H   UNL     1      47.955  55.904  20.701  1.00  0.00    +0.191 HD
BRANCH  10  12
ATOM     12  N   UNL     1      48.006  57.970  20.674  1.00  0.00    -0.274 N 
ATOM     13  C   UNL     1      47.574  58.692  19.568  1.00  0.00    +0.185 C 
ATOM     14  S   UNL     1      47.583  58.062  18.015  1.00  0.00    -0.039 S 
ATOM     15  N   UNL     1      47.125  59.942  19.950  1.00  0.00    -0.359 N 
ATOM     16  H   UNL     1      48.173  58.414  21.576  1.00  0.00    +0.190 HD
ATOM     17  H   UNL     1      47.125  60.107  20.947  1.00  0.00    +0.163 HD
BRANCH  15  18
ATOM     18  C   UNL     1      46.532  61.021  19.167  1.00  0.00    +0.081 C 
ATOM     19  C   UNL     1      45.051  60.854  18.818  1.00  0.00    +0.025 C 
ATOM     20  C   UNL     1      46.691  62.433  19.750  1.00  0.00    +0.025 C 
ATOM     21  C   UNL     1      44.576  62.282  18.598  1.00  0.00    +0.002 C 
ATOM     22  C   UNL     1      45.304  63.066  19.680  1.00  0.00    +0.002 C 
ENDBRANCH  15  18
ENDBRANCH  10  12
ENDBRANCH   7   8
BRANCH   5  23
ATOM     23  S   UNL     1      50.213  52.011  18.195  1.00  0.00    +0.240 S 
ATOM     24  O   UNL     1      49.267  52.717  17.359  1.00  0.00    -0.207 OA
ATOM     25  O   UNL     1      51.441  51.465  17.656  1.00  0.00    -0.207 OA
BRANCH  23  26
ATOM     26  N   UNL     1      49.445  50.727  18.992  1.00  0.00    -0.208 NA
ATOM     27  H   UNL     1      50.058  50.378  19.731  1.00  0.00    +0.141 HD
BRANCH  26  28
ATOM     28  C   UNL     1      48.881  49.681  18.133  1.00  0.00    +0.070 C 
ATOM     29  C   UNL     1      47.832  48.752  18.676  1.00  0.00    +0.022 C 
ATOM     30  C   UNL     1      47.464  49.773  17.641  1.00  0.00    +0.022 C 
ENDBRANCH  26  28
ENDBRANCH  23  26
ENDBRANCH   5  23
TORSDOF 6
ENDMDL
MODEL 3
REMARK VINA RESULT:    -8.283      2.966      8.467
REMARK INTER + INTRA:         -11.794
REMARK INTER:                 -11.060
REMARK INTRA:                  -0.734
REMARK UNBOUND:                -0.606
REMARK SMILES Cc1ccc(S(=O)(=O)NC2CC2)cc1C(=O)NNC(=S)NC1CCCC1
REMARK SMILES IDX 1 1 2 2 3 3 4 4 5 5 13 6 14 7 15 8 16 9 17 10 18 12 19 13
REMARK SMILES IDX 20 14 21 15 22 18 23 19 26 20 24 21 25 22 6 23 7 24 8 25
REMARK SMILES IDX 9 26 10 28 11 29 12 30
REMARK H PARENT 17 11 18 16 21 17 9 27
ROOT
ATOM      1  C   UNL     1      51.216  55.818  22.198  1.00  0.00    +0.045 C 
ATOM      2  C   UNL     1      51.138  54.454  21.568  1.00  0.00    -0.038 A 
ATOM      3  C   UNL     1      51.650  53.356  22.283  1.00  0.00    +0.005 A 
ATOM      4  C   UNL     1      51.574  52.062  21.762  1.00  0.00    +0.022 A 
ATOM      5  C   UNL     1      50.980  51.856  20.518  1.00  0.00    +0.083 A 
ATOM      6  C   UNL     1      50.492  52.931  19.775  1.00  0.00    +0.036 A 
ATOM      7  C   UNL     1      50.583  54.229  20.293  1.00  0.00    +0.045 A 
ENDROOT
BRANCH   7   8
ATOM      8  C   UNL     1      50.062  55.314  19.427  1.00  0.00    +0.269 C 
ATOM      9  O   UNL     1      50.799  55.894  18.636  1.00  0.00    -0.267 OA
ATOM     10  N   UNL     1      48.741  55.654  19.630  1.00  0.00    -0.264 N 
ATOM     11  H   UNL     1      48.194  55.301  20.413  1.00  0.00    +0.191 HD
BRANCH  10  12
ATOM     12  N   UNL     1      48.253  56.795  18.986  1.00  0.00    -0.274 N 
ATOM     13  C   UNL     1      48.031  57.980  19.679  1.00  0.00    +0.185 C 
ATOM     14  S   UNL     1      48.437  58.176  21.293  1.00  0.00    -0.039 S 
ATOM     15  N   UNL     1      47.480  58.933  18.844  1.00  0.00    -0.359 N 
ATOM     16  H   UNL     1      47.839  56.620  18.072  1.00  0.00    +0.190 HD
ATOM     17  H   UNL     1      47.383  58.648  17.879  1.00  0.00    +0.163 HD
BRANCH  15  18
ATOM     18  C   UNL     1      47.127  60.328  19.092  1.00  0.00    +0.081 C 
ATOM     19  C   UNL     1      47.701  61.344  18.103  1.00  0.00    +0.025 C 
ATOM     20  C   UNL     1      45.625  60.624  19.210  1.00  0.00    +0.025 C 
ATOM     21  C   UNL     1      46.733  62.514  18.198  1.00  0.00    +0.002 C 
ATOM     22  C   UNL     1      45.375  61.839  18.320  1.00  0.00    +0.002 C 
ENDBRANCH  15  18
ENDBRANCH  10  12
ENDBRANCH   7   8
BRANCH   5  23
ATOM     23  S   UNL     1      50.887  50.222  19.832  1.00  0.00    +0.240 S 
ATOM     24  O   UNL     1      52.094  49.984  19.073  1.00  0.00    -0.207 OA
ATOM     25  O   UNL     1      50.458  49.317  20.878  1.00  0.00    -0.207 OA
BRANCH  23  26
ATOM     26  N   UNL     1      49.561  50.384  18.787  1.00  0.00    -0.208 NA
ATOM     27  H   UNL     1      48.917  51.078  19.172  1.00  0.00    +0.141 HD
BRANCH  26  28
ATOM     28  C   UNL     1      48.920  49.136  18.362  1.00  0.00    +0.070 C 
ATOM     29  C   UNL     1      47.513  48.834  18.794  1.00  0.00    +0.022 C 
ATOM     30  C   UNL     1      47.804  49.150  17.357  1.00  0.00    +0.022 C 
ENDBRANCH  26  28
ENDBRANCH  23  26
ENDBRANCH   5  23
TORSDOF 6
ENDMDL
MODEL 4
REMARK VINA RESULT:    -7.953      5.344      6.912
REMARK INTER + INTRA:         -11.349
REMARK INTER:                 -10.986
REMARK INTRA:                  -0.363
REMARK UNBOUND:                -0.606
REMARK SMILES Cc1ccc(S(=O)(=O)NC2CC2)cc1C(=O)NNC(=S)NC1CCCC1
REMARK SMILES IDX 1 1 2 2 3 3 4 4 5 5 13 6 14 7 15 8 16 9 17 10 18 12 19 13
REMARK SMILES IDX 20 14 21 15 22 18 23 19 26 20 24 21 25 22 6 23 7 24 8 25
REMARK SMILES IDX 9 26 10 28 11 29 12 30
REMARK H PARENT 17 11 18 16 21 17 9 27
ROOT
ATOM      1  C   UNL     1      46.931  58.372  19.987  1.00  0.00    +0.045 C 
ATOM      2  C   UNL     1      48.235  57.778  20.444  1.00  0.00    -0.038 A 
ATOM      3  C   UNL     1      48.730  58.142  21.709  1.00  0.00    +0.005 A 
ATOM      4  C   UNL     1      49.919  57.595  22.199  1.00  0.00    +0.022 A 
ATOM      5  C   UNL     1      50.622  56.673  21.424  1.00  0.00    +0.083 A 
ATOM      6  C   UNL     1      50.168  56.318  20.154  1.00  0.00    +0.036 A 
ATOM      7  C   UNL     1      48.985  56.880  19.658  1.00  0.00    +0.045 A 
ENDROOT
BRANCH   7   8
ATOM      8  C   UNL     1      48.589  56.465  18.291  1.00  0.00    +0.269 C 
ATOM      9  O   UNL     1      48.683  55.293  17.940  1.00  0.00    -0.267 OA
ATOM     10  N   UNL     1      48.190  57.483  17.452  1.00  0.00    -0.264 N 
ATOM     11  H   UNL     1      48.296  58.468  17.690  1.00  0.00    +0.191 HD
BRANCH  10  12
ATOM     12  N   UNL     1      47.997  57.181  16.101  1.00  0.00    -0.274 N 
ATOM     13  C   UNL     1      46.952  57.739  15.373  1.00  0.00    +0.185 C 
ATOM     14  S   UNL     1      45.922  58.898  16.011  1.00  0.00    -0.039 S 
ATOM     15  N   UNL     1      46.929  57.230  14.089  1.00  0.00    -0.359 N 
ATOM     16  H   UNL     1      48.497  56.354  15.778  1.00  0.00    +0.190 HD
ATOM     17  H   UNL     1      47.686  56.598  13.869  1.00  0.00    +0.163 HD
BRANCH  15  18
ATOM     18  C   UNL     1      46.067  57.547  12.955  1.00  0.00    +0.081 C 
ATOM     19  C   UNL     1      46.645  57.233  11.573  1.00  0.00    +0.025 C 
ATOM     20  C   UNL     1      44.661  56.931  12.995  1.00  0.00    +0.025 C 
ATOM     21  C   UNL     1      45.409  57.058  10.704  1.00  0.00    +0.002 C 
ATOM     22  C   UNL     1      44.441  56.317  11.615  1.00  0.00    +0.002 C 
ENDBRANCH  15  18
ENDBRANCH  10  12
ENDBRANCH   7   8
BRANCH   5  23
ATOM     23  S   UNL     1      52.140  55.978  22.022  1.00  0.00    +0.240 S 
ATOM     24  O   UNL     1      53.226  56.826  21.583  1.00  0.00    -0.207 OA
ATOM     25  O   UNL     1      51.963  55.636  23.418  1.00  0.00    -0.207 OA
BRANCH  23  26
ATOM     26  N   UNL     1      52.174  54.504  21.185  1.00  0.00    -0.208 NA
ATOM     27  H   UNL     1      51.792  54.645  20.248  1.00  0.00    +0.141 HD
BRANCH  26  28
ATOM     28  C   UNL     1      51.620  53.347  21.894  1.00  0.00    +0.070 C 
ATOM     29  C   UNL     1      50.538  52.525  21.253  1.00  0.00    +0.022 C 
ATOM     30  C   UNL     1      51.912  51.949  21.428  1.00  0.00    +0.022 C 
ENDBRANCH  26  28
ENDBRANCH  23  26
ENDBRANCH   5  23
TORSDOF 6
ENDMDL
MODEL 5
REMARK VINA RESULT:    -7.935      3.762      6.076
REMARK INTER + INTRA:         -11.325
REMARK INTER:                 -10.644
REMARK INTRA:                  -0.681
REMARK UNBOUND:                -0.606
REMARK SMILES Cc1ccc(S(=O)(=O)NC2CC2)cc1C(=O)NNC(=S)NC1CCCC1
REMARK SMILES IDX 1 1 2 2 3 3 4 4 5 5 13 6 14 7 15 8 16 9 17 10 18 12 19 13
REMARK SMILES IDX 20 14 21 15 22 18 23 19 26 20 24 21 25 22 6 23 7 24 8 25
REMARK SMILES IDX 9 26 10 28 11 29 12 30
REMARK H PARENT 17 11 18 16 21 17 9 27
ROOT
ATOM      1  C   UNL     1      47.113  48.861  18.010  1.00  0.00    +0.045 C 
ATOM      2  C   UNL     1      48.449  49.443  18.384  1.00  0.00    -0.038 A 
ATOM      3  C   UNL     1      49.212  48.790  19.368  1.00  0.00    +0.005 A 
ATOM      4  C   UNL     1      50.475  49.265  19.730  1.00  0.00    +0.022 A 
ATOM      5  C   UNL     1      50.986  50.402  19.105  1.00  0.00    +0.083 A 
ATOM      6  C   UNL     1      50.237  51.086  18.147  1.00  0.00    +0.036 A 
ATOM      7  C   UNL     1      48.965  50.616  17.797  1.00  0.00    +0.045 A 
ENDROOT
BRANCH   7   8
ATOM      8  C   UNL     1      48.230  51.416  16.790  1.00  0.00    +0.269 C 
ATOM      9  O   UNL     1      47.917  50.928  15.708  1.00  0.00    -0.267 OA
ATOM     10  N   UNL     1      47.998  52.732  17.128  1.00  0.00    -0.264 N 
ATOM     11  H   UNL     1      48.424  53.177  17.939  1.00  0.00    +0.191 HD
BRANCH  10  12
ATOM     12  N   UNL     1      47.488  53.582  16.142  1.00  0.00    -0.274 N 
ATOM     13  C   UNL     1      47.665  54.960  16.208  1.00  0.00    +0.185 C 
ATOM     14  S   UNL     1      48.593  55.698  17.392  1.00  0.00    -0.039 S 
ATOM     15  N   UNL     1      47.009  55.583  15.164  1.00  0.00    -0.359 N 
ATOM     16  H   UNL     1      46.782  53.158  15.543  1.00  0.00    +0.190 HD
ATOM     17  H   UNL     1      46.568  54.957  14.505  1.00  0.00    +0.163 HD
BRANCH  15  18
ATOM     18  C   UNL     1      46.948  56.991  14.782  1.00  0.00    +0.081 C 
ATOM     19  C   UNL     1      46.355  57.280  13.401  1.00  0.00    +0.025 C 
ATOM     20  C   UNL     1      46.233  57.919  15.774  1.00  0.00    +0.025 C 
ATOM     21  C   UNL     1      45.852  58.710  13.526  1.00  0.00    +0.002 C 
ATOM     22  C   UNL     1      45.275  58.759  14.933  1.00  0.00    +0.002 C 
ENDBRANCH  15  18
ENDBRANCH  10  12
ENDBRANCH   7   8
BRANCH   5  23
ATOM     23  S   UNL     1      52.581  51.030  19.561  1.00  0.00    +0.240 S 
ATOM     24  O   UNL     1      53.445  49.905  19.839  1.00  0.00    -0.207 OA
ATOM     25  O   UNL     1      52.954  52.054  18.607  1.00  0.00    -0.207 OA
BRANCH  23  26
ATOM     26  N   UNL     1      52.209  51.850  20.998  1.00  0.00    -0.208 NA
ATOM     27  H   UNL     1      51.502  51.320  21.510  1.00  0.00    +0.141 HD
BRANCH  26  28
ATOM     28  C   UNL     1      51.911  53.280  20.865  1.00  0.00    +0.070 C 
ATOM     29  C   UNL     1      50.501  53.769  21.042  1.00  0.00    +0.022 C 
ATOM     30  C   UNL     1      51.544  54.102  22.068  1.00  0.00    +0.022 C 
ENDBRANCH  26  28
ENDBRANCH  23  26
ENDBRANCH   5  23
TORSDOF 6
ENDMDL
