MODEL 1
REMARK VINA RESULT:    -8.876      0.000      0.000
REMARK INTER + INTRA:         -15.109
REMARK INTER:                 -14.065
REMARK INTRA:                  -1.044
REMARK UNBOUND:                -1.044
REMARK SMILES CC(C)[C@H](NC(=O)c1cccs1)C(=O)OCC(=O)NCC(=O)Nc1ccc(F)c(F)c1
REMARK SMILES IDX 16 1 15 2 13 3 14 4 4 5 2 6 1 7 3 8 5 9 6 10 7 11 8 13 9 14
REMARK SMILES IDX 12 15 10 16 11 17 17 18 18 19 19 20 20 22 21 23 22 24 23 25
REMARK SMILES IDX 24 27 25 28 31 29 26 30 29 31 27 32 30 33 28 34
REMARK H PARENT 5 12 19 21 23 26
ROOT
ATOM      1  C   UNL     1      50.120  49.130  20.152  1.00  0.00    +0.332 C 
ENDROOT
BRANCH   1   2
ATOM      2  O   UNL     1      49.785  48.868  18.787  1.00  0.00    -0.454 OA
BRANCH   2   3
ATOM      3  C   UNL     1      48.519  49.271  18.433  1.00  0.00    +0.329 C 
ATOM      4  O   UNL     1      47.491  48.830  18.950  1.00  0.00    -0.250 OA
BRANCH   3   5
ATOM      5  C   UNL     1      48.566  50.234  17.222  1.00  0.00    +0.195 C 
BRANCH   5   6
ATOM      6  C   UNL     1      48.436  51.699  17.691  1.00  0.00    +0.017 C 
ATOM      7  C   UNL     1      47.560  52.520  16.740  1.00  0.00    +0.010 C 
ATOM      8  C   UNL     1      49.804  52.388  17.822  1.00  0.00    +0.010 C 
ENDBRANCH   5   6
BRANCH   5   9
ATOM      9  N   UNL     1      47.452  49.887  16.325  1.00  0.00    -0.338 N 
ATOM     10  C   UNL     1      47.538  48.801  15.474  1.00  0.00    +0.262 C 
ATOM     11  O   UNL     1      48.619  48.298  15.188  1.00  0.00    -0.268 OA
ATOM     12  H   UNL     1      46.514  50.089  16.664  1.00  0.00    +0.164 HD
BRANCH  10  13
ATOM     13  C   UNL     1      46.271  48.294  14.960  1.00  0.00    +0.092 A 
ATOM     14  C   UNL     1      45.952  48.078  13.629  1.00  0.00    +0.025 A 
ATOM     15  S   UNL     1      44.960  47.866  15.985  1.00  0.00    -0.139 S 
ATOM     16  C   UNL     1      44.636  47.559  13.458  1.00  0.00    +0.012 A 
ATOM     17  C   UNL     1      43.983  47.399  14.663  1.00  0.00    +0.065 A 
ENDBRANCH  10  13
ENDBRANCH   5   9
ENDBRANCH   3   5
ENDBRANCH   2   3
ENDBRANCH   1   2
BRANCH   1  18
ATOM     18  C   UNL     1      51.347  50.034  20.279  1.00  0.00    +0.258 C 
ATOM     19  O   UNL     1      52.439  49.741  19.804  1.00  0.00    -0.271 OA
ATOM     20  N   UNL     1      51.110  51.209  20.955  1.00  0.00    -0.344 N 
ATOM     21  H   UNL     1      50.220  51.353  21.424  1.00  0.00    +0.164 HD
BRANCH  20  22
ATOM     22  C   UNL     1      52.161  52.185  21.197  1.00  0.00    +0.216 C 
BRANCH  22  23
ATOM     23  C   UNL     1      51.557  53.545  21.564  1.00  0.00    +0.243 C 
ATOM     24  O   UNL     1      51.907  54.138  22.580  1.00  0.00    -0.273 OA
ATOM     25  N   UNL     1      50.672  54.015  20.602  1.00  0.00    -0.324 N 
ATOM     26  H   UNL     1      50.603  53.449  19.759  1.00  0.00    +0.170 HD
BRANCH  25  27
ATOM     27  C   UNL     1      49.887  55.183  20.655  1.00  0.00    +0.044 A 
ATOM     28  C   UNL     1      48.720  55.209  19.869  1.00  0.00    +0.029 A 
ATOM     29  C   UNL     1      50.196  56.289  21.454  1.00  0.00    +0.068 A 
ATOM     30  C   UNL     1      47.876  56.322  19.886  1.00  0.00    +0.044 A 
ATOM     31  C   UNL     1      49.347  57.398  21.463  1.00  0.00    +0.160 A 
ATOM     32  C   UNL     1      48.195  57.416  20.685  1.00  0.00    +0.158 A 
ATOM     33  F   UNL     1      49.654  58.452  22.237  1.00  0.00    -0.204 F 
ATOM     34  F   UNL     1      47.381  58.486  20.694  1.00  0.00    -0.204 F 
ENDBRANCH  25  27
ENDBRANCH  22  23
ENDBRANCH  20  22
ENDBRANCH   1  18
TORSDOF 10
ENDMDL
MODEL 2
REMARK VINA RESULT:    -8.564      2.320      3.136
REMARK INTER + INTRA:         -14.614
REMARK INTER:                 -13.313
REMARK INTRA:                  -1.301
REMARK UNBOUND:                -1.044
REMARK SMILES CC(C)[C@H](NC(=O)c1cccs1)C(=O)OCC(=O)NCC(=O)Nc1ccc(F)c(F)c1
REMARK SMILES IDX 16 1 15 2 13 3 14 4 4 5 2 6 1 7 3 8 5 9 6 10 7 11 8 13 9 14
REMARK SMILES IDX 12 15 10 16 11 17 17 18 18 19 19 20 20 22 21 23 22 24 23 25
REMARK SMILES IDX 24 27 25 28 31 29 26 30 29 31 27 32 30 33 28 34
REMARK H PARENT 5 12 19 21 23 26
ROOT
ATOM      1  C   UNL     1      51.219  51.149  18.220  1.00  0.00    +0.332 C 
ENDROOT
BRANCH   1   2
ATOM      2  O   UNL     1      49.812  51.401  18.210  1.00  0.00    -0.454 OA
BRANCH   2   3
ATOM      3  C   UNL     1      49.252  51.418  16.955  1.00  0.00    +0.329 C 
ATOM      4  O   UNL     1      48.610  52.368  16.505  1.00  0.00    -0.250 OA
BRANCH   3   5
ATOM      5  C   UNL     1      49.426  50.048  16.256  1.00  0.00    +0.195 C 
BRANCH   5   6
ATOM      6  C   UNL     1      49.697  50.239  14.749  1.00  0.00    +0.017 C 
ATOM      7  C   UNL     1      48.484  49.840  13.903  1.00  0.00    +0.010 C 
ATOM      8  C   UNL     1      50.917  49.434  14.274  1.00  0.00    +0.010 C 
ENDBRANCH   5   6
BRANCH   5   9
ATOM      9  N   UNL     1      48.187  49.279  16.456  1.00  0.00    -0.338 N 
ATOM     10  C   UNL     1      48.015  48.488  17.577  1.00  0.00    +0.262 C 
ATOM     11  O   UNL     1      48.969  48.133  18.260  1.00  0.00    -0.268 OA
ATOM     12  H   UNL     1      47.331  49.691  16.091  1.00  0.00    +0.164 HD
BRANCH  10  13
ATOM     13  C   UNL     1      46.639  48.123  17.893  1.00  0.00    +0.092 A 
ATOM     14  C   UNL     1      46.173  47.648  19.108  1.00  0.00    +0.025 A 
ATOM     15  S   UNL     1      45.360  48.260  16.753  1.00  0.00    -0.139 S 
ATOM     16  C   UNL     1      44.769  47.401  19.098  1.00  0.00    +0.012 A 
ATOM     17  C   UNL     1      44.202  47.688  17.873  1.00  0.00    +0.065 A 
ENDBRANCH  10  13
ENDBRANCH   5   9
ENDBRANCH   3   5
ENDBRANCH   2   3
ENDBRANCH   1   2
BRANCH   1  18
ATOM     18  C   UNL     1      52.017  52.365  18.690  1.00  0.00    +0.258 C 
ATOM     19  O   UNL     1      52.909  52.874  18.018  1.00  0.00    -0.271 OA
ATOM     20  N   UNL     1      51.635  52.844  19.922  1.00  0.00    -0.344 N 
ATOM     21  H   UNL     1      50.970  52.321  20.484  1.00  0.00    +0.164 HD
BRANCH  20  22
ATOM     22  C   UNL     1      52.295  53.981  20.546  1.00  0.00    +0.216 C 
BRANCH  22  23
ATOM     23  C   UNL     1      51.618  55.290  20.129  1.00  0.00    +0.243 C 
ATOM     24  O   UNL     1      52.256  56.185  19.583  1.00  0.00    -0.273 OA
ATOM     25  N   UNL     1      50.250  55.287  20.372  1.00  0.00    -0.324 N 
ATOM     26  H   UNL     1      49.869  54.406  20.711  1.00  0.00    +0.170 HD
BRANCH  25  27
ATOM     27  C   UNL     1      49.341  56.347  20.184  1.00  0.00    +0.044 A 
ATOM     28  C   UNL     1      49.084  57.178  21.290  1.00  0.00    +0.029 A 
ATOM     29  C   UNL     1      48.712  56.620  18.965  1.00  0.00    +0.068 A 
ATOM     30  C   UNL     1      48.214  58.264  21.175  1.00  0.00    +0.044 A 
ATOM     31  C   UNL     1      47.841  57.706  18.861  1.00  0.00    +0.160 A 
ATOM     32  C   UNL     1      47.593  58.525  19.958  1.00  0.00    +0.158 A 
ATOM     33  F   UNL     1      47.245  57.959  17.685  1.00  0.00    -0.204 F 
ATOM     34  F   UNL     1      46.753  59.569  19.856  1.00  0.00    -0.204 F 
ENDBRANCH  25  27
ENDBRANCH  22  23
ENDBRANCH  20  22
ENDBRANCH   1  18
TORSDOF 10
ENDMDL
MODEL 3
REMARK VINA RESULT:    -8.267      4.390      9.214
REMARK INTER + INTRA:         -14.144
REMARK INTER:                 -13.134
REMARK INTRA:                  -1.009
REMARK UNBOUND:                -1.044
REMARK SMILES CC(C)[C@H](NC(=O)c1cccs1)C(=O)OCC(=O)NCC(=O)Nc1ccc(F)c(F)c1
REMARK SMILES IDX 16 1 15 2 13 3 14 4 4 5 2 6 1 7 3 8 5 9 6 10 7 11 8 13 9 14
REMARK SMILES IDX 12 15 10 16 11 17 17 18 18 19 19 20 20 22 21 23 22 24 23 25
REMARK SMILES IDX 24 27 25 28 31 29 26 30 29 31 27 32 30 33 28 34
REMARK H PARENT 5 12 19 21 23 26
ROOT
ATOM      1  C   UNL     1      50.737  51.544  17.463  1.00  0.00    +0.332 C 
ENDROOT
BRANCH   1   2
ATOM      2  O   UNL     1      50.884  52.671  18.330  1.00  0.00    -0.454 OA
BRANCH   2   3
ATOM      3  C   UNL     1      52.174  52.895  18.747  1.00  0.00    +0.329 C 
ATOM      4  O   UNL     1      53.156  52.811  18.008  1.00  0.00    -0.250 OA
BRANCH   3   5
ATOM      5  C   UNL     1      52.226  53.126  20.277  1.00  0.00    +0.195 C 
BRANCH   5   6
ATOM      6  C   UNL     1      52.156  51.781  21.031  1.00  0.00    +0.017 C 
ATOM      7  C   UNL     1      52.747  50.638  20.200  1.00  0.00    +0.010 C 
ATOM      8  C   UNL     1      50.716  51.413  21.424  1.00  0.00    +0.010 C 
ENDBRANCH   5   6
BRANCH   5   9
ATOM      9  N   UNL     1      51.083  53.976  20.644  1.00  0.00    -0.338 N 
ATOM     10  C   UNL     1      51.271  55.282  21.055  1.00  0.00    +0.262 C 
ATOM     11  O   UNL     1      52.365  55.678  21.443  1.00  0.00    -0.268 OA
ATOM     12  H   UNL     1      50.212  53.808  20.146  1.00  0.00    +0.164 HD
BRANCH  10  13
ATOM     13  C   UNL     1      50.099  56.147  20.982  1.00  0.00    +0.092 A 
ATOM     14  C   UNL     1      49.865  57.279  21.745  1.00  0.00    +0.025 A 
ATOM     15  S   UNL     1      48.812  55.870  19.877  1.00  0.00    -0.139 S 
ATOM     16  C   UNL     1      48.632  57.915  21.419  1.00  0.00    +0.012 A 
ATOM     17  C   UNL     1      47.955  57.247  20.418  1.00  0.00    +0.065 A 
ENDBRANCH  10  13
ENDBRANCH   5   9
ENDBRANCH   3   5
ENDBRANCH   2   3
ENDBRANCH   1   2
BRANCH   1  18
ATOM     18  C   UNL     1      49.524  50.689  17.831  1.00  0.00    +0.258 C 
ATOM     19  O   UNL     1      48.374  51.114  17.785  1.00  0.00    -0.271 OA
ATOM     20  N   UNL     1      49.837  49.401  18.201  1.00  0.00    -0.344 N 
ATOM     21  H   UNL     1      50.809  49.133  18.330  1.00  0.00    +0.164 HD
BRANCH  20  22
ATOM     22  C   UNL     1      48.818  48.446  18.610  1.00  0.00    +0.216 C 
BRANCH  22  23
ATOM     23  C   UNL     1      48.155  47.812  17.383  1.00  0.00    +0.243 C 
ATOM     24  O   UNL     1      48.632  46.812  16.854  1.00  0.00    -0.273 OA
ATOM     25  N   UNL     1      46.969  48.442  17.028  1.00  0.00    -0.324 N 
ATOM     26  H   UNL     1      46.659  49.176  17.662  1.00  0.00    +0.170 HD
BRANCH  25  27
ATOM     27  C   UNL     1      46.151  48.169  15.914  1.00  0.00    +0.044 A 
ATOM     28  C   UNL     1      46.680  48.453  14.642  1.00  0.00    +0.029 A 
ATOM     29  C   UNL     1      44.869  47.619  16.012  1.00  0.00    +0.068 A 
ATOM     30  C   UNL     1      45.939  48.187  13.489  1.00  0.00    +0.044 A 
ATOM     31  C   UNL     1      44.134  47.360  14.853  1.00  0.00    +0.160 A 
ATOM     32  C   UNL     1      44.664  47.641  13.599  1.00  0.00    +0.158 A 
ATOM     33  F   UNL     1      42.905  46.829  14.961  1.00  0.00    -0.204 F 
ATOM     34  F   UNL     1      43.955  47.392  12.485  1.00  0.00    -0.204 F 
ENDBRANCH  25  27
ENDBRANCH  22  23
ENDBRANCH  20  22
ENDBRANCH   1  18
TORSDOF 10
ENDMDL
MODEL 4
REMARK VINA RESULT:    -8.113      4.139      8.384
REMARK INTER + INTRA:         -13.899
REMARK INTER:                 -12.247
REMARK INTRA:                  -1.653
REMARK UNBOUND:                -1.044
REMARK SMILES CC(C)[C@H](NC(=O)c1cccs1)C(=O)OCC(=O)NCC(=O)Nc1ccc(F)c(F)c1
REMARK SMILES IDX 16 1 15 2 13 3 14 4 4 5 2 6 1 7 3 8 5 9 6 10 7 11 8 13 9 14
REMARK SMILES IDX 12 15 10 16 11 17 17 18 18 19 19 20 20 22 21 23 22 24 23 25
REMARK SMILES IDX 24 27 25 28 31 29 26 30 29 31 27 32 30 33 28 34
REMARK H PARENT 5 12 19 21 23 26
ROOT
ATOM      1  C   UNL     1      48.510  54.145  18.272  1.00  0.00    +0.332 C 
ENDROOT
BRANCH   1   2
ATOM      2  O   UNL     1      49.724  54.733  18.746  1.00  0.00    -0.454 OA
BRANCH   2   3
ATOM      3  C   UNL     1      49.550  55.634  19.769  1.00  0.00    +0.329 C 
ATOM      4  O   UNL     1      48.951  56.703  19.645  1.00  0.00    -0.250 OA
BRANCH   3   5
ATOM      5  C   UNL     1      50.319  55.184  21.035  1.00  0.00    +0.195 C 
BRANCH   5   6
ATOM      6  C   UNL     1      51.244  56.313  21.536  1.00  0.00    +0.017 C 
ATOM      7  C   UNL     1      52.397  56.571  20.562  1.00  0.00    +0.010 C 
ATOM      8  C   UNL     1      51.829  56.009  22.925  1.00  0.00    +0.010 C 
ENDBRANCH   5   6
BRANCH   5   9
ATOM      9  N   UNL     1      51.111  53.995  20.684  1.00  0.00    -0.338 N 
ATOM     10  C   UNL     1      50.959  52.810  21.379  1.00  0.00    +0.262 C 
ATOM     11  O   UNL     1      50.433  52.782  22.486  1.00  0.00    -0.268 OA
ATOM     12  H   UNL     1      51.357  53.885  19.703  1.00  0.00    +0.164 HD
BRANCH  10  13
ATOM     13  C   UNL     1      51.448  51.611  20.707  1.00  0.00    +0.092 A 
ATOM     14  C   UNL     1      50.976  50.321  20.881  1.00  0.00    +0.025 A 
ATOM     15  S   UNL     1      52.717  51.653  19.549  1.00  0.00    -0.139 S 
ATOM     16  C   UNL     1      51.655  49.373  20.061  1.00  0.00    +0.012 A 
ATOM     17  C   UNL     1      52.633  49.966  19.288  1.00  0.00    +0.065 A 
ENDBRANCH  10  13
ENDBRANCH   5   9
ENDBRANCH   3   5
ENDBRANCH   2   3
ENDBRANCH   1   2
BRANCH   1  18
ATOM     18  C   UNL     1      48.768  53.035  17.253  1.00  0.00    +0.258 C 
ATOM     19  O   UNL     1      48.264  53.031  16.134  1.00  0.00    -0.271 OA
ATOM     20  N   UNL     1      49.627  52.056  17.696  1.00  0.00    -0.344 N 
ATOM     21  H   UNL     1      49.928  52.048  18.667  1.00  0.00    +0.164 HD
BRANCH  20  22
ATOM     22  C   UNL     1      49.974  50.905  16.876  1.00  0.00    +0.216 C 
BRANCH  22  23
ATOM     23  C   UNL     1      48.943  49.786  17.059  1.00  0.00    +0.243 C 
ATOM     24  O   UNL     1      49.171  48.832  17.797  1.00  0.00    -0.273 OA
ATOM     25  N   UNL     1      47.759  50.031  16.376  1.00  0.00    -0.324 N 
ATOM     26  H   UNL     1      47.699  50.939  15.919  1.00  0.00    +0.170 HD
BRANCH  25  27
ATOM     27  C   UNL     1      46.640  49.183  16.263  1.00  0.00    +0.044 A 
ATOM     28  C   UNL     1      46.437  48.547  15.025  1.00  0.00    +0.029 A 
ATOM     29  C   UNL     1      45.751  48.930  17.313  1.00  0.00    +0.068 A 
ATOM     30  C   UNL     1      45.364  47.672  14.842  1.00  0.00    +0.044 A 
ATOM     31  C   UNL     1      44.679  48.056  17.120  1.00  0.00    +0.160 A 
ATOM     32  C   UNL     1      44.486  47.430  15.894  1.00  0.00    +0.158 A 
ATOM     33  F   UNL     1      43.834  47.820  18.137  1.00  0.00    -0.204 F 
ATOM     34  F   UNL     1      43.453  46.590  15.710  1.00  0.00    -0.204 F 
ENDBRANCH  25  27
ENDBRANCH  22  23
ENDBRANCH  20  22
ENDBRANCH   1  18
TORSDOF 10
ENDMDL
MODEL 5
REMARK VINA RESULT:    -8.019      1.842      3.007
REMARK INTER + INTRA:         -13.751
REMARK INTER:                 -12.908
REMARK INTRA:                  -0.842
REMARK UNBOUND:                -1.044
REMARK SMILES CC(C)[C@H](NC(=O)c1cccs1)C(=O)OCC(=O)NCC(=O)Nc1ccc(F)c(F)c1
REMARK SMILES IDX 16 1 15 2 13 3 14 4 4 5 2 6 1 7 3 8 5 9 6 10 7 11 8 13 9 14
REMARK SMILES IDX 12 15 10 16 11 17 17 18 18 19 19 20 20 22 21 23 22 24 23 25
REMARK SMILES IDX 24 27 25 28 31 29 26 30 29 31 27 32 30 33 28 34
REMARK H PARENT 5 12 19 21 23 26
ROOT
ATOM      1  C   UNL     1      48.824  51.220  17.066  1.00  0.00    +0.332 C 
ENDROOT
BRANCH   1   2
ATOM      2  O   UNL     1      49.319  50.921  15.758  1.00  0.00    -0.454 OA
BRANCH   2   3
ATOM      3  C   UNL     1      49.267  49.586  15.431  1.00  0.00    +0.329 C 
ATOM      4  O   UNL     1      50.077  49.033  14.686  1.00  0.00    -0.250 OA
BRANCH   3   5
ATOM      5  C   UNL     1      47.993  48.926  16.010  1.00  0.00    +0.195 C 
BRANCH   5   6
ATOM      6  C   UNL     1      48.346  48.040  17.223  1.00  0.00    +0.017 C 
ATOM      7  C   UNL     1      48.480  46.567  16.825  1.00  0.00    +0.010 C 
ATOM      8  C   UNL     1      47.304  48.155  18.347  1.00  0.00    +0.010 C 
ENDBRANCH   5   6
BRANCH   5   9
ATOM      9  N   UNL     1      47.382  48.113  14.947  1.00  0.00    -0.338 N 
ATOM     10  C   UNL     1      46.017  48.138  14.728  1.00  0.00    +0.262 C 
ATOM     11  O   UNL     1      45.241  48.553  15.583  1.00  0.00    -0.268 OA
ATOM     12  H   UNL     1      47.944  47.958  14.112  1.00  0.00    +0.164 HD
BRANCH  10  13
ATOM     13  C   UNL     1      45.572  47.657  13.425  1.00  0.00    +0.092 A 
ATOM     14  C   UNL     1      45.708  48.318  12.215  1.00  0.00    +0.025 A 
ATOM     15  S   UNL     1      44.807  46.133  13.214  1.00  0.00    -0.139 S 
ATOM     16  C   UNL     1      45.186  47.570  11.120  1.00  0.00    +0.012 A 
ATOM     17  C   UNL     1      44.659  46.360  11.526  1.00  0.00    +0.065 A 
ENDBRANCH  10  13
ENDBRANCH   5   9
ENDBRANCH   3   5
ENDBRANCH   2   3
ENDBRANCH   1   2
BRANCH   1  18
ATOM     18  C   UNL     1      49.951  51.333  18.094  1.00  0.00    +0.258 C 
ATOM     19  O   UNL     1      50.078  50.547  19.028  1.00  0.00    -0.271 OA
ATOM     20  N   UNL     1      50.814  52.381  17.868  1.00  0.00    -0.344 N 
ATOM     21  H   UNL     1      50.600  53.066  17.148  1.00  0.00    +0.164 HD
BRANCH  20  22
ATOM     22  C   UNL     1      51.933  52.663  18.754  1.00  0.00    +0.216 C 
BRANCH  22  23
ATOM     23  C   UNL     1      51.494  53.589  19.893  1.00  0.00    +0.243 C 
ATOM     24  O   UNL     1      51.704  53.290  21.065  1.00  0.00    -0.273 OA
ATOM     25  N   UNL     1      50.933  54.774  19.436  1.00  0.00    -0.324 N 
ATOM     26  H   UNL     1      50.960  54.908  18.427  1.00  0.00    +0.170 HD
BRANCH  25  27
ATOM     27  C   UNL     1      50.358  55.805  20.204  1.00  0.00    +0.044 A 
ATOM     28  C   UNL     1      51.217  56.535  21.047  1.00  0.00    +0.029 A 
ATOM     29  C   UNL     1      49.002  56.146  20.152  1.00  0.00    +0.068 A 
ATOM     30  C   UNL     1      50.727  57.588  21.821  1.00  0.00    +0.044 A 
ATOM     31  C   UNL     1      48.521  57.199  20.932  1.00  0.00    +0.160 A 
ATOM     32  C   UNL     1      49.376  57.917  21.762  1.00  0.00    +0.158 A 
ATOM     33  F   UNL     1      47.218  57.518  20.871  1.00  0.00    -0.204 F 
ATOM     34  F   UNL     1      48.910  58.929  22.513  1.00  0.00    -0.204 F 
ENDBRANCH  25  27
ENDBRANCH  22  23
ENDBRANCH  20  22
ENDBRANCH   1  18
TORSDOF 10
ENDMDL
