MODEL 1
REMARK VINA RESULT:    -8.295      0.000      0.000
REMARK INTER + INTRA:         -16.962
REMARK INTER:                 -14.841
REMARK INTRA:                  -2.121
REMARK UNBOUND:                -2.121
REMARK SMILES CCCN(C(=O)CCCCC[NH3+])C1=C(C)C[C@H](c2ccccc2)N(CCC(=O)[O-])C1=O
REMARK SMILES IDX 5 1 6 2 4 3 3 4 2 5 1 6 13 7 14 8 30 9 16 10 24 11 31 12
REMARK SMILES IDX 17 13 15 14 25 15 26 16 27 17 28 18 29 19 18 20 19 21 23 22
REMARK SMILES IDX 20 23 22 24 21 25 7 26 8 27 9 28 10 29 11 30 12 31
REMARK H PARENT 12 32 12 33 12 34
ROOT
ATOM      1  C   UNL     1      50.444  49.999  18.743  1.00  0.00    +0.227 C 
ATOM      2  O   UNL     1      51.429  49.588  19.338  1.00  0.00    -0.275 OA
ENDROOT
BRANCH   1   3
ATOM      3  N   UNL     1      50.416  51.008  17.769  1.00  0.00    -0.308 N 
BRANCH   3   4
ATOM      4  C   UNL     1      51.017  50.692  16.443  1.00  0.00    +0.125 C 
BRANCH   4   5
ATOM      5  C   UNL     1      49.967  50.131  15.487  1.00  0.00    +0.019 C 
ATOM      6  C   UNL     1      50.603  49.493  14.266  1.00  0.00    +0.006 C 
ENDBRANCH   4   5
ENDBRANCH   3   4
BRANCH   3   7
ATOM      7  C   UNL     1      49.832  52.268  17.973  1.00  0.00    +0.108 C 
ATOM      8  C   UNL     1      48.562  52.665  17.702  1.00  0.00    -0.041 C 
ATOM      9  C   UNL     1      50.658  53.327  18.701  1.00  0.00    +0.271 C 
ATOM     10  C   UNL     1      48.147  54.071  18.091  1.00  0.00    +0.063 C 
ATOM     11  N   UNL     1      49.991  53.917  19.774  1.00  0.00    -0.330 N 
ATOM     12  O   UNL     1      51.843  53.540  18.453  1.00  0.00    -0.267 OA
ATOM     13  C   UNL     1      48.655  54.456  19.503  1.00  0.00    +0.120 C 
ATOM     14  C   UNL     1      47.444  51.872  17.089  1.00  0.00    +0.042 C 
BRANCH  11  15
ATOM     15  C   UNL     1      50.267  53.315  21.094  1.00  0.00    +0.126 C 
BRANCH  15  16
ATOM     16  C   UNL     1      51.623  53.738  21.683  1.00  0.00    +0.074 C 
BRANCH  16  17
ATOM     17  C   UNL     1      51.930  55.214  21.864  1.00  0.00    +0.043 C 
ATOM     18  O   UNL     1      52.448  55.893  20.948  1.00  0.00    -0.550 OA
ATOM     19  O   UNL     1      51.606  55.674  23.010  1.00  0.00    -0.550 OA
ENDBRANCH  16  17
ENDBRANCH  15  16
ENDBRANCH  11  15
BRANCH  13  20
ATOM     20  C   UNL     1      48.602  55.977  19.613  1.00  0.00    -0.025 A 
ATOM     21  C   UNL     1      48.793  56.582  20.863  1.00  0.00    +0.006 A 
ATOM     22  C   UNL     1      48.216  56.792  18.526  1.00  0.00    +0.006 A 
ATOM     23  C   UNL     1      48.554  57.946  21.019  1.00  0.00    +0.000 A 
ATOM     24  C   UNL     1      47.980  58.156  18.688  1.00  0.00    +0.000 A 
ATOM     25  C   UNL     1      48.135  58.730  19.941  1.00  0.00    +0.000 A 
ENDBRANCH  13  20
ENDBRANCH   3   7
ENDBRANCH   1   3
BRANCH   1  26
ATOM     26  C   UNL     1      49.091  49.350  18.994  1.00  0.00    +0.100 C 
BRANCH  26  27
ATOM     27  C   UNL     1      48.836  48.151  18.087  1.00  0.00    +0.010 C 
BRANCH  27  28
ATOM     28  C   UNL     1      47.410  48.175  17.552  1.00  0.00    +0.006 C 
BRANCH  28  29
ATOM     29  C   UNL     1      46.354  48.166  18.675  1.00  0.00    +0.061 C 
BRANCH  29  30
ATOM     30  C   UNL     1      45.054  47.497  18.222  1.00  0.00    +0.258 C 
BRANCH  30  31
ATOM     31  N   UNL     1      44.485  46.680  19.302  1.00  0.00    -0.358 N 
ATOM     32  H   UNL     1      44.153  45.748  18.900  1.00  0.00    +0.344 HD
ATOM     33  H   UNL     1      43.614  47.036  19.708  1.00  0.00    +0.344 HD
ATOM     34  H   UNL     1      45.150  46.479  20.051  1.00  0.00    +0.344 HD
ENDBRANCH  30  31
ENDBRANCH  29  30
ENDBRANCH  28  29
ENDBRANCH  27  28
ENDBRANCH  26  27
ENDBRANCH   1  26
TORSDOF 14
ENDMDL
MODEL 2
REMARK VINA RESULT:    -6.393      8.312     12.369
REMARK INTER + INTRA:         -13.560
REMARK INTER:                 -11.280
REMARK INTRA:                  -2.280
REMARK UNBOUND:                -2.121
REMARK SMILES CCCN(C(=O)CCCCC[NH3+])C1=C(C)C[C@H](c2ccccc2)N(CCC(=O)[O-])C1=O
REMARK SMILES IDX 5 1 6 2 4 3 3 4 2 5 1 6 13 7 14 8 30 9 16 10 24 11 31 12
REMARK SMILES IDX 17 13 15 14 25 15 26 16 27 17 28 18 29 19 18 20 19 21 23 22
REMARK SMILES IDX 20 23 22 24 21 25 7 26 8 27 9 28 10 29 11 30 12 31
REMARK H PARENT 12 32 12 33 12 34
ROOT
ATOM      1  C   UNL     1      47.038  61.283  18.572  1.00  0.00    +0.227 C 
ATOM      2  O   UNL     1      48.131  61.288  18.026  1.00  0.00    -0.275 OA
ENDROOT
BRANCH   1   3
ATOM      3  N   UNL     1      45.996  62.199  18.366  1.00  0.00    -0.308 N 
BRANCH   3   4
ATOM      4  C   UNL     1      45.276  62.696  19.571  1.00  0.00    +0.125 C 
BRANCH   4   5
ATOM      5  C   UNL     1      43.763  62.597  19.384  1.00  0.00    +0.019 C 
ATOM      6  C   UNL     1      43.274  61.167  19.514  1.00  0.00    +0.006 C 
ENDBRANCH   4   5
ENDBRANCH   3   4
BRANCH   3   7
ATOM      7  C   UNL     1      45.627  62.683  17.100  1.00  0.00    +0.108 C 
ATOM      8  C   UNL     1      44.932  62.050  16.121  1.00  0.00    -0.041 C 
ATOM      9  C   UNL     1      45.922  64.149  16.786  1.00  0.00    +0.271 C 
ATOM     10  C   UNL     1      44.589  62.824  14.863  1.00  0.00    +0.063 C 
ATOM     11  N   UNL     1      44.817  64.853  16.308  1.00  0.00    -0.330 N 
ATOM     12  O   UNL     1      46.992  64.691  17.056  1.00  0.00    -0.267 OA
ATOM     13  C   UNL     1      44.094  64.258  15.181  1.00  0.00    +0.120 C 
ATOM     14  C   UNL     1      44.387  60.651  16.116  1.00  0.00    +0.042 C 
BRANCH  11  15
ATOM     15  C   UNL     1      44.058  65.601  17.330  1.00  0.00    +0.126 C 
BRANCH  15  16
ATOM     16  C   UNL     1      42.548  65.310  17.300  1.00  0.00    +0.074 C 
BRANCH  16  17
ATOM     17  C   UNL     1      41.707  65.607  18.528  1.00  0.00    +0.043 C 
ATOM     18  O   UNL     1      40.686  64.935  18.802  1.00  0.00    -0.550 OA
ATOM     19  O   UNL     1      42.142  66.580  19.232  1.00  0.00    -0.550 OA
ENDBRANCH  16  17
ENDBRANCH  15  16
ENDBRANCH  11  15
BRANCH  13  20
ATOM     20  C   UNL     1      44.219  65.081  13.902  1.00  0.00    -0.025 A 
ATOM     21  C   UNL     1      43.165  65.923  13.523  1.00  0.00    +0.006 A 
ATOM     22  C   UNL     1      45.298  64.913  13.006  1.00  0.00    +0.006 A 
ATOM     23  C   UNL     1      43.176  66.528  12.267  1.00  0.00    +0.000 A 
ATOM     24  C   UNL     1      45.303  65.522  11.753  1.00  0.00    +0.000 A 
ATOM     25  C   UNL     1      44.232  66.319  11.377  1.00  0.00    +0.000 A 
ENDBRANCH  13  20
ENDBRANCH   3   7
ENDBRANCH   1   3
BRANCH   1  26
ATOM     26  C   UNL     1      46.687  60.162  19.539  1.00  0.00    +0.100 C 
BRANCH  26  27
ATOM     27  C   UNL     1      47.585  58.941  19.376  1.00  0.00    +0.010 C 
BRANCH  27  28
ATOM     28  C   UNL     1      47.531  58.063  20.619  1.00  0.00    +0.006 C 
BRANCH  28  29
ATOM     29  C   UNL     1      48.575  56.930  20.592  1.00  0.00    +0.061 C 
BRANCH  29  30
ATOM     30  C   UNL     1      49.947  57.415  21.067  1.00  0.00    +0.258 C 
BRANCH  30  31
ATOM     31  N   UNL     1      49.847  58.051  22.387  1.00  0.00    -0.358 N 
ATOM     32  H   UNL     1      50.151  59.073  22.308  1.00  0.00    +0.344 HD
ATOM     33  H   UNL     1      50.507  57.707  23.090  1.00  0.00    +0.344 HD
ATOM     34  H   UNL     1      48.902  58.035  22.773  1.00  0.00    +0.344 HD
ENDBRANCH  30  31
ENDBRANCH  29  30
ENDBRANCH  28  29
ENDBRANCH  27  28
ENDBRANCH  26  27
ENDBRANCH   1  26
TORSDOF 14
ENDMDL
MODEL 3
REMARK VINA RESULT:    -5.981      8.559     13.247
REMARK INTER + INTRA:         -12.822
REMARK INTER:                 -10.226
REMARK INTRA:                  -2.596
REMARK UNBOUND:                -2.121
REMARK SMILES CCCN(C(=O)CCCCC[NH3+])C1=C(C)C[C@H](c2ccccc2)N(CCC(=O)[O-])C1=O
REMARK SMILES IDX 5 1 6 2 4 3 3 4 2 5 1 6 13 7 14 8 30 9 16 10 24 11 31 12
REMARK SMILES IDX 17 13 15 14 25 15 26 16 27 17 28 18 29 19 18 20 19 21 23 22
REMARK SMILES IDX 20 23 22 24 21 25 7 26 8 27 9 28 10 29 11 30 12 31
REMARK H PARENT 12 32 12 33 12 34
ROOT
ATOM      1  C   UNL     1      43.680  65.586  17.338  1.00  0.00    +0.227 C 
ATOM      2  O   UNL     1      43.512  65.386  18.531  1.00  0.00    -0.275 OA
ENDROOT
BRANCH   1   3
ATOM      3  N   UNL     1      44.362  64.753  16.439  1.00  0.00    -0.308 N 
BRANCH   3   4
ATOM      4  C   UNL     1      44.229  65.063  14.988  1.00  0.00    +0.125 C 
BRANCH   4   5
ATOM      5  C   UNL     1      45.467  64.608  14.216  1.00  0.00    +0.019 C 
ATOM      6  C   UNL     1      45.168  64.408  12.743  1.00  0.00    +0.006 C 
ENDBRANCH   4   5
ENDBRANCH   3   4
BRANCH   3   7
ATOM      7  C   UNL     1      45.173  63.678  16.837  1.00  0.00    +0.108 C 
ATOM      8  C   UNL     1      46.476  63.697  17.215  1.00  0.00    -0.041 C 
ATOM      9  C   UNL     1      44.513  62.309  16.994  1.00  0.00    +0.271 C 
ATOM     10  C   UNL     1      47.111  62.400  17.681  1.00  0.00    +0.063 C 
ATOM     11  N   UNL     1      44.772  61.700  18.222  1.00  0.00    -0.330 N 
ATOM     12  O   UNL     1      43.720  61.848  16.175  1.00  0.00    -0.267 OA
ATOM     13  C   UNL     1      46.177  61.604  18.626  1.00  0.00    +0.120 C 
ATOM     14  C   UNL     1      47.413  64.868  17.289  1.00  0.00    +0.042 C 
BRANCH  11  15
ATOM     15  C   UNL     1      43.741  61.913  19.258  1.00  0.00    +0.126 C 
BRANCH  15  16
ATOM     16  C   UNL     1      42.854  60.679  19.495  1.00  0.00    +0.074 C 
BRANCH  16  17
ATOM     17  C   UNL     1      41.550  60.541  18.731  1.00  0.00    +0.043 C 
ATOM     18  O   UNL     1      40.675  61.436  18.761  1.00  0.00    -0.550 OA
ATOM     19  O   UNL     1      41.448  59.452  18.071  1.00  0.00    -0.550 OA
ENDBRANCH  16  17
ENDBRANCH  15  16
ENDBRANCH  11  15
BRANCH  13  20
ATOM     20  C   UNL     1      46.680  60.163  18.663  1.00  0.00    -0.025 A 
ATOM     21  C   UNL     1      47.122  59.622  19.878  1.00  0.00    +0.006 A 
ATOM     22  C   UNL     1      46.857  59.402  17.486  1.00  0.00    +0.006 A 
ATOM     23  C   UNL     1      47.764  58.385  19.895  1.00  0.00    +0.000 A 
ATOM     24  C   UNL     1      47.499  58.166  17.511  1.00  0.00    +0.000 A 
ATOM     25  C   UNL     1      47.966  57.664  18.716  1.00  0.00    +0.000 A 
ENDBRANCH  13  20
ENDBRANCH   3   7
ENDBRANCH   1   3
BRANCH   1  26
ATOM     26  C   UNL     1      43.061  66.814  16.688  1.00  0.00    +0.100 C 
BRANCH  26  27
ATOM     27  C   UNL     1      41.804  67.291  17.409  1.00  0.00    +0.010 C 
BRANCH  27  28
ATOM     28  C   UNL     1      40.574  66.562  16.884  1.00  0.00    +0.006 C 
BRANCH  28  29
ATOM     29  C   UNL     1      39.596  66.164  18.006  1.00  0.00    +0.061 C 
BRANCH  29  30
ATOM     30  C   UNL     1      39.776  64.701  18.419  1.00  0.00    +0.258 C 
BRANCH  30  31
ATOM     31  N   UNL     1      40.753  64.583  19.509  1.00  0.00    -0.358 N 
ATOM     32  H   UNL     1      41.180  63.603  19.494  1.00  0.00    +0.344 HD
ATOM     33  H   UNL     1      40.362  64.609  20.454  1.00  0.00    +0.344 HD
ATOM     34  H   UNL     1      41.518  65.257  19.441  1.00  0.00    +0.344 HD
ENDBRANCH  30  31
ENDBRANCH  29  30
ENDBRANCH  28  29
ENDBRANCH  27  28
ENDBRANCH  26  27
ENDBRANCH   1  26
TORSDOF 14
ENDMDL
MODEL 4
REMARK VINA RESULT:    -5.643      8.751     13.544
REMARK INTER + INTRA:         -12.217
REMARK INTER:                  -9.457
REMARK INTRA:                  -2.760
REMARK UNBOUND:                -2.121
REMARK SMILES CCCN(C(=O)CCCCC[NH3+])C1=C(C)C[C@H](c2ccccc2)N(CCC(=O)[O-])C1=O
REMARK SMILES IDX 5 1 6 2 4 3 3 4 2 5 1 6 13 7 14 8 30 9 16 10 24 11 31 12
REMARK SMILES IDX 17 13 15 14 25 15 26 16 27 17 28 18 29 19 18 20 19 21 23 22
REMARK SMILES IDX 20 23 22 24 21 25 7 26 8 27 9 28 10 29 11 30 12 31
REMARK H PARENT 12 32 12 33 12 34
ROOT
ATOM      1  C   UNL     1      42.344  65.466  18.179  1.00  0.00    +0.227 C 
ATOM      2  O   UNL     1      42.231  66.219  19.136  1.00  0.00    -0.275 OA
ENDROOT
BRANCH   1   3
ATOM      3  N   UNL     1      41.904  64.137  18.106  1.00  0.00    -0.308 N 
BRANCH   3   4
ATOM      4  C   UNL     1      40.434  63.902  18.148  1.00  0.00    +0.125 C 
BRANCH   4   5
ATOM      5  C   UNL     1      40.065  62.946  19.280  1.00  0.00    +0.019 C 
ATOM      6  C   UNL     1      39.377  61.698  18.761  1.00  0.00    +0.006 C 
ENDBRANCH   4   5
ENDBRANCH   3   4
BRANCH   3   7
ATOM      7  C   UNL     1      42.768  63.039  17.966  1.00  0.00    +0.108 C 
ATOM      8  C   UNL     1      42.754  62.066  17.020  1.00  0.00    -0.041 C 
ATOM      9  C   UNL     1      43.968  62.954  18.909  1.00  0.00    +0.271 C 
ATOM     10  C   UNL     1      43.855  61.023  17.041  1.00  0.00    +0.063 C 
ATOM     11  N   UNL     1      45.183  62.762  18.253  1.00  0.00    -0.330 N 
ATOM     12  O   UNL     1      43.888  63.170  20.117  1.00  0.00    -0.267 OA
ATOM     13  C   UNL     1      45.247  61.654  17.295  1.00  0.00    +0.120 C 
ATOM     14  C   UNL     1      41.796  61.885  15.878  1.00  0.00    +0.042 C 
BRANCH  11  15
ATOM     15  C   UNL     1      45.949  63.993  17.975  1.00  0.00    +0.126 C 
BRANCH  15  16
ATOM     16  C   UNL     1      46.442  64.087  16.521  1.00  0.00    +0.074 C 
BRANCH  16  17
ATOM     17  C   UNL     1      47.131  65.354  16.048  1.00  0.00    +0.043 C 
ATOM     18  O   UNL     1      47.698  65.415  14.933  1.00  0.00    -0.550 OA
ATOM     19  O   UNL     1      47.066  66.322  16.879  1.00  0.00    -0.550 OA
ENDBRANCH  16  17
ENDBRANCH  15  16
ENDBRANCH  11  15
BRANCH  13  20
ATOM     20  C   UNL     1      46.182  60.537  17.751  1.00  0.00    -0.025 A 
ATOM     21  C   UNL     1      46.441  59.465  16.886  1.00  0.00    +0.006 A 
ATOM     22  C   UNL     1      46.679  60.469  19.071  1.00  0.00    +0.006 A 
ATOM     23  C   UNL     1      47.129  58.346  17.354  1.00  0.00    +0.000 A 
ATOM     24  C   UNL     1      47.367  59.348  19.532  1.00  0.00    +0.000 A 
ATOM     25  C   UNL     1      47.579  58.279  18.674  1.00  0.00    +0.000 A 
ENDBRANCH  13  20
ENDBRANCH   3   7
ENDBRANCH   1   3
BRANCH   1  26
ATOM     26  C   UNL     1      42.959  65.982  16.887  1.00  0.00    +0.100 C 
BRANCH  26  27
ATOM     27  C   UNL     1      41.915  66.282  15.816  1.00  0.00    +0.010 C 
BRANCH  27  28
ATOM     28  C   UNL     1      42.369  65.757  14.461  1.00  0.00    +0.006 C 
BRANCH  28  29
ATOM     29  C   UNL     1      43.767  65.109  14.513  1.00  0.00    +0.061 C 
BRANCH  29  30
ATOM     30  C   UNL     1      44.374  64.962  13.116  1.00  0.00    +0.258 C 
BRANCH  30  31
ATOM     31  N   UNL     1      43.327  64.989  12.087  1.00  0.00    -0.358 N 
ATOM     32  H   UNL     1      42.403  65.289  12.533  1.00  0.00    +0.344 HD
ATOM     33  H   UNL     1      43.069  64.077  11.700  1.00  0.00    +0.344 HD
ATOM     34  H   UNL     1      43.529  65.636  11.322  1.00  0.00    +0.344 HD
ENDBRANCH  30  31
ENDBRANCH  29  30
ENDBRANCH  28  29
ENDBRANCH  27  28
ENDBRANCH  26  27
ENDBRANCH   1  26
TORSDOF 14
ENDMDL
MODEL 5
REMARK VINA RESULT:    -5.610      7.665     11.491
REMARK INTER + INTRA:         -12.158
REMARK INTER:                  -9.122
REMARK INTRA:                  -3.036
REMARK UNBOUND:                -2.121
REMARK SMILES CCCN(C(=O)CCCCC[NH3+])C1=C(C)C[C@H](c2ccccc2)N(CCC(=O)[O-])C1=O
REMARK SMILES IDX 5 1 6 2 4 3 3 4 2 5 1 6 13 7 14 8 30 9 16 10 24 11 31 12
REMARK SMILES IDX 17 13 15 14 25 15 26 16 27 17 28 18 29 19 18 20 19 21 23 22
REMARK SMILES IDX 20 23 22 24 21 25 7 26 8 27 9 28 10 29 11 30 12 31
REMARK H PARENT 12 32 12 33 12 34
ROOT
ATOM      1  C   UNL     1      41.443  62.399  16.872  1.00  0.00    +0.227 C 
ATOM      2  O   UNL     1      40.705  62.769  17.774  1.00  0.00    -0.275 OA
ENDROOT
BRANCH   1   3
ATOM      3  N   UNL     1      42.827  62.607  16.787  1.00  0.00    -0.308 N 
BRANCH   3   4
ATOM      4  C   UNL     1      43.290  63.981  16.449  1.00  0.00    +0.125 C 
BRANCH   4   5
ATOM      5  C   UNL     1      43.391  64.167  14.936  1.00  0.00    +0.019 C 
ATOM      6  C   UNL     1      42.250  65.008  14.396  1.00  0.00    +0.006 C 
ENDBRANCH   4   5
ENDBRANCH   3   4
BRANCH   3   7
ATOM      7  C   UNL     1      43.779  61.604  17.031  1.00  0.00    +0.108 C 
ATOM      8  C   UNL     1      44.361  60.756  16.145  1.00  0.00    -0.041 C 
ATOM      9  C   UNL     1      44.353  61.496  18.443  1.00  0.00    +0.271 C 
ATOM     10  C   UNL     1      45.430  59.807  16.650  1.00  0.00    +0.063 C 
ATOM     11  N   UNL     1      45.747  61.480  18.481  1.00  0.00    -0.330 N 
ATOM     12  O   UNL     1      43.658  61.556  19.456  1.00  0.00    -0.267 OA
ATOM     13  C   UNL     1      46.419  60.507  17.617  1.00  0.00    +0.120 C 
ATOM     14  C   UNL     1      44.128  60.644  14.666  1.00  0.00    +0.042 C 
BRANCH  11  15
ATOM     15  C   UNL     1      46.384  62.792  18.713  1.00  0.00    +0.126 C 
BRANCH  15  16
ATOM     16  C   UNL     1      47.263  63.257  17.539  1.00  0.00    +0.074 C 
BRANCH  16  17
ATOM     17  C   UNL     1      46.991  64.603  16.892  1.00  0.00    +0.043 C 
ATOM     18  O   UNL     1      46.996  65.663  17.558  1.00  0.00    -0.550 OA
ATOM     19  O   UNL     1      46.773  64.539  15.635  1.00  0.00    -0.550 OA
ENDBRANCH  16  17
ENDBRANCH  15  16
ENDBRANCH  11  15
BRANCH  13  20
ATOM     20  C   UNL     1      47.140  59.418  18.407  1.00  0.00    -0.025 A 
ATOM     21  C   UNL     1      47.593  58.272  17.739  1.00  0.00    +0.006 A 
ATOM     22  C   UNL     1      47.234  59.454  19.815  1.00  0.00    +0.006 A 
ATOM     23  C   UNL     1      48.073  57.186  18.469  1.00  0.00    +0.000 A 
ATOM     24  C   UNL     1      47.716  58.365  20.539  1.00  0.00    +0.000 A 
ATOM     25  C   UNL     1      48.123  57.224  19.864  1.00  0.00    +0.000 A 
ENDBRANCH  13  20
ENDBRANCH   3   7
ENDBRANCH   1   3
BRANCH   1  26
ATOM     26  C   UNL     1      40.874  61.572  15.729  1.00  0.00    +0.100 C 
BRANCH  26  27
ATOM     27  C   UNL     1      39.493  61.005  16.042  1.00  0.00    +0.010 C 
BRANCH  27  28
ATOM     28  C   UNL     1      39.564  59.497  16.238  1.00  0.00    +0.006 C 
BRANCH  28  29
ATOM     29  C   UNL     1      40.900  59.040  16.856  1.00  0.00    +0.061 C 
BRANCH  29  30
ATOM     30  C   UNL     1      40.757  58.733  18.348  1.00  0.00    +0.258 C 
BRANCH  30  31
ATOM     31  N   UNL     1      41.205  59.871  19.160  1.00  0.00    -0.358 N 
ATOM     32  H   UNL     1      40.429  60.144  19.841  1.00  0.00    +0.344 HD
ATOM     33  H   UNL     1      41.334  60.750  18.651  1.00  0.00    +0.344 HD
ATOM     34  H   UNL     1      42.045  59.671  19.707  1.00  0.00    +0.344 HD
ENDBRANCH  30  31
ENDBRANCH  29  30
ENDBRANCH  28  29
ENDBRANCH  27  28
ENDBRANCH  26  27
ENDBRANCH   1  26
TORSDOF 14
ENDMDL
