MODEL 1
REMARK VINA RESULT:    -9.345      0.000      0.000
REMARK INTER + INTRA:         -15.107
REMARK INTER:                 -14.262
REMARK INTRA:                  -0.846
REMARK UNBOUND:                -0.846
REMARK SMILES C[C@H](Sc1nnc(C2CC2)n1CCC(N)=O)C(=O)N[C@@H](C)c1ccc(Cl)cc1Cl
REMARK SMILES IDX 3 1 2 2 1 3 17 4 19 5 18 6 20 8 21 9 22 10 23 11 28 12 24 13
REMARK SMILES IDX 27 14 25 15 29 16 26 17 4 18 5 19 11 20 6 21 7 22 12 23
REMARK SMILES IDX 13 24 14 25 16 26 15 27 8 30 9 31 10 32
REMARK H PARENT 19 7 15 28 15 29
ROOT
ATOM      1  S   UNL     1      52.000  53.611  19.097  1.00  0.00    -0.073 SA
ENDROOT
BRANCH   1   2
ATOM      2  C   UNL     1      52.169  52.689  20.682  1.00  0.00    +0.141 C 
ATOM      3  C   UNL     1      51.235  53.260  21.745  1.00  0.00    +0.030 C 
BRANCH   2   4
ATOM      4  C   UNL     1      52.078  51.180  20.414  1.00  0.00    +0.233 C 
ATOM      5  N   UNL     1      50.813  50.674  20.180  1.00  0.00    -0.349 N 
ATOM      6  O   UNL     1      53.099  50.492  20.354  1.00  0.00    -0.274 OA
ATOM      7  H   UNL     1      50.152  51.356  19.831  1.00  0.00    +0.164 HD
BRANCH   5   8
ATOM      8  C   UNL     1      50.578  49.329  19.643  1.00  0.00    +0.110 C 
ATOM      9  C   UNL     1      50.516  48.234  20.719  1.00  0.00    +0.036 C 
BRANCH   8  10
ATOM     10  C   UNL     1      49.264  49.309  18.858  1.00  0.00    -0.007 A 
ATOM     11  C   UNL     1      48.162  48.595  19.379  1.00  0.00    +0.009 A 
ATOM     12  C   UNL     1      49.117  49.921  17.597  1.00  0.00    +0.047 A 
ATOM     13  C   UNL     1      46.959  48.507  18.668  1.00  0.00    +0.021 A 
ATOM     14  C   UNL     1      47.914  49.814  16.881  1.00  0.00    +0.041 A 
ATOM     15  C   UNL     1      46.846  49.109  17.417  1.00  0.00    +0.042 A 
ATOM     16 Cl   UNL     1      50.395  50.806  16.852  1.00  0.00    -0.084 Cl
ATOM     17 Cl   UNL     1      45.369  48.975  16.524  1.00  0.00    -0.084 Cl
ENDBRANCH   8  10
ENDBRANCH   5   8
ENDBRANCH   2   4
ENDBRANCH   1   2
BRANCH   1  18
ATOM     18  C   UNL     1      50.602  54.572  19.442  1.00  0.00    +0.191 A 
ATOM     19  N   UNL     1      49.367  54.210  19.221  1.00  0.00    -0.123 NA
ATOM     20  N   UNL     1      50.653  55.876  19.863  1.00  0.00    -0.305 N 
ATOM     21  N   UNL     1      48.575  55.302  19.473  1.00  0.00    -0.134 NA
ATOM     22  C   UNL     1      49.352  56.302  19.838  1.00  0.00    +0.136 A 
BRANCH  20  23
ATOM     23  C   UNL     1      51.833  56.683  20.120  1.00  0.00    +0.136 C 
BRANCH  23  24
ATOM     24  C   UNL     1      52.220  56.753  21.599  1.00  0.00    +0.121 C 
BRANCH  24  25
ATOM     25  C   UNL     1      53.294  57.783  21.868  1.00  0.00    +0.219 C 
ATOM     26  O   UNL     1      54.500  57.566  21.846  1.00  0.00    -0.275 OA
ATOM     27  N   UNL     1      52.818  59.013  22.204  1.00  0.00    -0.370 N 
ATOM     28  H   UNL     1      51.865  59.291  22.027  1.00  0.00    +0.159 HD
ATOM     29  H   UNL     1      53.512  59.741  22.326  1.00  0.00    +0.159 HD
ENDBRANCH  24  25
ENDBRANCH  23  24
ENDBRANCH  20  23
BRANCH  22  30
ATOM     30  C   UNL     1      48.833  57.740  20.121  1.00  0.00    +0.058 C 
ATOM     31  C   UNL     1      48.660  58.181  21.553  1.00  0.00    +0.012 C 
ATOM     32  C   UNL     1      47.452  57.946  20.698  1.00  0.00    +0.012 C 
ENDBRANCH  22  30
ENDBRANCH   1  18
TORSDOF 9
ENDMDL
MODEL 2
REMARK VINA RESULT:    -8.974      3.478      7.949
REMARK INTER + INTRA:         -14.541
REMARK INTER:                 -13.522
REMARK INTRA:                  -1.019
REMARK UNBOUND:                -0.846
REMARK SMILES C[C@H](Sc1nnc(C2CC2)n1CCC(N)=O)C(=O)N[C@@H](C)c1ccc(Cl)cc1Cl
REMARK SMILES IDX 3 1 2 2 1 3 17 4 19 5 18 6 20 8 21 9 22 10 23 11 28 12 24 13
REMARK SMILES IDX 27 14 25 15 29 16 26 17 4 18 5 19 11 20 6 21 7 22 12 23
REMARK SMILES IDX 13 24 14 25 16 26 15 27 8 30 9 31 10 32
REMARK H PARENT 19 7 15 28 15 29
ROOT
ATOM      1  S   UNL     1      50.245  50.193  18.405  1.00  0.00    -0.073 SA
ENDROOT
BRANCH   1   2
ATOM      2  C   UNL     1      50.569  50.178  20.217  1.00  0.00    +0.141 C 
ATOM      3  C   UNL     1      51.054  48.805  20.671  1.00  0.00    +0.030 C 
BRANCH   2   4
ATOM      4  C   UNL     1      51.441  51.384  20.596  1.00  0.00    +0.233 C 
ATOM      5  N   UNL     1      51.075  52.601  20.052  1.00  0.00    -0.349 N 
ATOM      6  O   UNL     1      52.372  51.257  21.393  1.00  0.00    -0.274 OA
ATOM      7  H   UNL     1      50.099  52.662  19.793  1.00  0.00    +0.164 HD
BRANCH   5   8
ATOM      8  C   UNL     1      51.620  53.880  20.518  1.00  0.00    +0.110 C 
ATOM      9  C   UNL     1      52.721  54.452  19.612  1.00  0.00    +0.036 C 
BRANCH   8  10
ATOM     10  C   UNL     1      50.495  54.913  20.622  1.00  0.00    -0.007 A 
ATOM     11  C   UNL     1      49.323  54.734  19.855  1.00  0.00    +0.009 A 
ATOM     12  C   UNL     1      50.598  56.080  21.405  1.00  0.00    +0.047 A 
ATOM     13  C   UNL     1      48.293  55.682  19.879  1.00  0.00    +0.021 A 
ATOM     14  C   UNL     1      49.570  57.036  21.412  1.00  0.00    +0.041 A 
ATOM     15  C   UNL     1      48.427  56.834  20.651  1.00  0.00    +0.042 A 
ATOM     16 Cl   UNL     1      51.986  56.417  22.372  1.00  0.00    -0.084 Cl
ATOM     17 Cl   UNL     1      47.167  58.021  20.659  1.00  0.00    -0.084 Cl
ENDBRANCH   8  10
ENDBRANCH   5   8
ENDBRANCH   2   4
ENDBRANCH   1   2
BRANCH   1  18
ATOM     18  C   UNL     1      48.611  49.623  18.375  1.00  0.00    +0.191 A 
ATOM     19  N   UNL     1      48.098  48.764  19.215  1.00  0.00    -0.123 NA
ATOM     20  N   UNL     1      47.715  49.913  17.379  1.00  0.00    -0.305 N 
ATOM     21  N   UNL     1      46.843  48.452  18.759  1.00  0.00    -0.134 NA
ATOM     22  C   UNL     1      46.626  49.128  17.648  1.00  0.00    +0.136 A 
BRANCH  20  23
ATOM     23  C   UNL     1      47.927  50.741  16.205  1.00  0.00    +0.136 C 
BRANCH  23  24
ATOM     24  C   UNL     1      48.169  49.942  14.922  1.00  0.00    +0.121 C 
BRANCH  24  25
ATOM     25  C   UNL     1      49.584  49.419  14.822  1.00  0.00    +0.219 C 
ATOM     26  O   UNL     1      50.513  50.002  14.277  1.00  0.00    -0.275 OA
ATOM     27  N   UNL     1      49.761  48.180  15.356  1.00  0.00    -0.370 N 
ATOM     28  H   UNL     1      49.099  47.766  15.993  1.00  0.00    +0.159 HD
ATOM     29  H   UNL     1      50.712  47.831  15.364  1.00  0.00    +0.159 HD
ENDBRANCH  24  25
ENDBRANCH  23  24
ENDBRANCH  20  23
BRANCH  22  30
ATOM     30  C   UNL     1      45.346  48.973  16.779  1.00  0.00    +0.058 C 
ATOM     31  C   UNL     1      44.507  47.731  16.937  1.00  0.00    +0.012 C 
ATOM     32  C   UNL     1      45.298  47.938  15.681  1.00  0.00    +0.012 C 
ENDBRANCH  22  30
ENDBRANCH   1  18
TORSDOF 9
ENDMDL
MODEL 3
REMARK VINA RESULT:    -8.767      2.550      4.349
REMARK INTER + INTRA:         -14.225
REMARK INTER:                 -13.080
REMARK INTRA:                  -1.145
REMARK UNBOUND:                -0.846
REMARK SMILES C[C@H](Sc1nnc(C2CC2)n1CCC(N)=O)C(=O)N[C@@H](C)c1ccc(Cl)cc1Cl
REMARK SMILES IDX 3 1 2 2 1 3 17 4 19 5 18 6 20 8 21 9 22 10 23 11 28 12 24 13
REMARK SMILES IDX 27 14 25 15 29 16 26 17 4 18 5 19 11 20 6 21 7 22 12 23
REMARK SMILES IDX 13 24 14 25 16 26 15 27 8 30 9 31 10 32
REMARK H PARENT 19 7 15 28 15 29
ROOT
ATOM      1  S   UNL     1      50.078  52.667  18.122  1.00  0.00    -0.073 SA
ENDROOT
BRANCH   1   2
ATOM      2  C   UNL     1      48.398  52.094  17.636  1.00  0.00    +0.141 C 
ATOM      3  C   UNL     1      47.992  52.683  16.287  1.00  0.00    +0.030 C 
BRANCH   2   4
ATOM      4  C   UNL     1      48.309  50.569  17.784  1.00  0.00    +0.233 C 
ATOM      5  N   UNL     1      47.071  50.001  17.548  1.00  0.00    -0.349 N 
ATOM      6  O   UNL     1      49.316  49.905  18.038  1.00  0.00    -0.274 OA
ATOM      7  H   UNL     1      46.471  50.551  16.949  1.00  0.00    +0.164 HD
BRANCH   5   8
ATOM      8  C   UNL     1      46.876  48.556  17.377  1.00  0.00    +0.110 C 
ATOM      9  C   UNL     1      46.094  47.898  18.524  1.00  0.00    +0.036 C 
BRANCH   8  10
ATOM     10  C   UNL     1      46.129  48.288  16.068  1.00  0.00    -0.007 A 
ATOM     11  C   UNL     1      44.809  47.788  16.118  1.00  0.00    +0.009 A 
ATOM     12  C   UNL     1      46.723  48.458  14.801  1.00  0.00    +0.047 A 
ATOM     13  C   UNL     1      44.111  47.479  14.944  1.00  0.00    +0.021 A 
ATOM     14  C   UNL     1      46.024  48.130  13.629  1.00  0.00    +0.041 A 
ATOM     15  C   UNL     1      44.726  47.641  13.706  1.00  0.00    +0.042 A 
ATOM     16 Cl   UNL     1      48.332  49.048  14.613  1.00  0.00    -0.084 Cl
ATOM     17 Cl   UNL     1      43.874  47.232  12.256  1.00  0.00    -0.084 Cl
ENDBRANCH   8  10
ENDBRANCH   5   8
ENDBRANCH   2   4
ENDBRANCH   1   2
BRANCH   1  18
ATOM     18  C   UNL     1      49.669  53.965  19.192  1.00  0.00    +0.191 A 
ATOM     19  N   UNL     1      48.633  54.751  19.060  1.00  0.00    -0.123 NA
ATOM     20  N   UNL     1      50.467  54.391  20.222  1.00  0.00    -0.305 N 
ATOM     21  N   UNL     1      48.754  55.739  20.004  1.00  0.00    -0.134 NA
ATOM     22  C   UNL     1      49.863  55.530  20.684  1.00  0.00    +0.136 A 
BRANCH  20  23
ATOM     23  C   UNL     1      51.753  53.855  20.631  1.00  0.00    +0.136 C 
BRANCH  23  24
ATOM     24  C   UNL     1      51.656  52.782  21.717  1.00  0.00    +0.121 C 
BRANCH  24  25
ATOM     25  C   UNL     1      52.061  51.413  21.218  1.00  0.00    +0.219 C 
ATOM     26  O   UNL     1      52.948  51.195  20.402  1.00  0.00    -0.275 OA
ATOM     27  N   UNL     1      51.309  50.392  21.714  1.00  0.00    -0.370 N 
ATOM     28  H   UNL     1      50.729  50.496  22.532  1.00  0.00    +0.159 HD
ATOM     29  H   UNL     1      51.598  49.458  21.449  1.00  0.00    +0.159 HD
ENDBRANCH  24  25
ENDBRANCH  23  24
ENDBRANCH  20  23
BRANCH  22  30
ATOM     30  C   UNL     1      50.396  56.491  21.784  1.00  0.00    +0.058 C 
ATOM     31  C   UNL     1      49.807  57.876  21.886  1.00  0.00    +0.012 C 
ATOM     32  C   UNL     1      51.214  57.701  21.399  1.00  0.00    +0.012 C 
ENDBRANCH  22  30
ENDBRANCH   1  18
TORSDOF 9
ENDMDL
MODEL 4
REMARK VINA RESULT:    -8.510      4.197      9.087
REMARK INTER + INTRA:         -13.832
REMARK INTER:                 -13.090
REMARK INTRA:                  -0.743
REMARK UNBOUND:                -0.846
REMARK SMILES C[C@H](Sc1nnc(C2CC2)n1CCC(N)=O)C(=O)N[C@@H](C)c1ccc(Cl)cc1Cl
REMARK SMILES IDX 3 1 2 2 1 3 17 4 19 5 18 6 20 8 21 9 22 10 23 11 28 12 24 13
REMARK SMILES IDX 27 14 25 15 29 16 26 17 4 18 5 19 11 20 6 21 7 22 12 23
REMARK SMILES IDX 13 24 14 25 16 26 15 27 8 30 9 31 10 32
REMARK H PARENT 19 7 15 28 15 29
ROOT
ATOM      1  S   UNL     1      49.307  49.907  18.339  1.00  0.00    -0.073 SA
ENDROOT
BRANCH   1   2
ATOM      2  C   UNL     1      49.627  51.641  17.811  1.00  0.00    +0.141 C 
ATOM      3  C   UNL     1      48.368  52.270  17.220  1.00  0.00    +0.030 C 
BRANCH   2   4
ATOM      4  C   UNL     1      50.319  52.407  18.947  1.00  0.00    +0.233 C 
ATOM      5  N   UNL     1      50.547  53.753  18.729  1.00  0.00    -0.349 N 
ATOM      6  O   UNL     1      50.589  51.843  20.009  1.00  0.00    -0.274 OA
ATOM      7  H   UNL     1      49.923  54.175  18.055  1.00  0.00    +0.164 HD
BRANCH   5   8
ATOM      8  C   UNL     1      50.941  54.679  19.797  1.00  0.00    +0.110 C 
ATOM      9  C   UNL     1      52.353  55.260  19.624  1.00  0.00    +0.036 C 
BRANCH   8  10
ATOM     10  C   UNL     1      49.946  55.840  19.865  1.00  0.00    -0.007 A 
ATOM     11  C   UNL     1      49.091  56.080  18.767  1.00  0.00    +0.009 A 
ATOM     12  C   UNL     1      49.884  56.731  20.955  1.00  0.00    +0.047 A 
ATOM     13  C   UNL     1      48.203  57.163  18.766  1.00  0.00    +0.021 A 
ATOM     14  C   UNL     1      49.005  57.826  20.942  1.00  0.00    +0.041 A 
ATOM     15  C   UNL     1      48.174  58.037  19.850  1.00  0.00    +0.042 A 
ATOM     16 Cl   UNL     1      50.887  56.551  22.346  1.00  0.00    -0.084 Cl
ATOM     17 Cl   UNL     1      47.098  59.394  19.838  1.00  0.00    -0.084 Cl
ENDBRANCH   8  10
ENDBRANCH   5   8
ENDBRANCH   2   4
ENDBRANCH   1   2
BRANCH   1  18
ATOM     18  C   UNL     1      48.569  49.275  16.906  1.00  0.00    +0.191 A 
ATOM     19  N   UNL     1      49.160  49.146  15.748  1.00  0.00    -0.123 NA
ATOM     20  N   UNL     1      47.237  48.966  16.802  1.00  0.00    -0.305 N 
ATOM     21  N   UNL     1      48.200  48.768  14.844  1.00  0.00    -0.134 NA
ATOM     22  C   UNL     1      47.047  48.681  15.476  1.00  0.00    +0.136 A 
BRANCH  20  23
ATOM     23  C   UNL     1      46.215  49.074  17.829  1.00  0.00    +0.136 C 
BRANCH  23  24
ATOM     24  C   UNL     1      46.268  47.953  18.870  1.00  0.00    +0.121 C 
BRANCH  24  25
ATOM     25  C   UNL     1      44.964  47.195  18.972  1.00  0.00    +0.219 C 
ATOM     26  O   UNL     1      44.328  47.023  20.004  1.00  0.00    -0.275 OA
ATOM     27  N   UNL     1      44.545  46.644  17.800  1.00  0.00    -0.370 N 
ATOM     28  H   UNL     1      44.908  46.934  16.906  1.00  0.00    +0.159 HD
ATOM     29  H   UNL     1      43.641  46.186  17.822  1.00  0.00    +0.159 HD
ENDBRANCH  24  25
ENDBRANCH  23  24
ENDBRANCH  20  23
BRANCH  22  30
ATOM     30  C   UNL     1      45.697  48.366  14.772  1.00  0.00    +0.058 C 
ATOM     31  C   UNL     1      45.437  46.959  14.297  1.00  0.00    +0.012 C 
ATOM     32  C   UNL     1      45.671  48.049  13.295  1.00  0.00    +0.012 C 
ENDBRANCH  22  30
ENDBRANCH   1  18
TORSDOF 9
ENDMDL
MODEL 5
REMARK VINA RESULT:    -8.178      3.251      4.324
REMARK INTER + INTRA:         -13.326
REMARK INTER:                 -12.277
REMARK INTRA:                  -1.049
REMARK UNBOUND:                -0.846
REMARK SMILES C[C@H](Sc1nnc(C2CC2)n1CCC(N)=O)C(=O)N[C@@H](C)c1ccc(Cl)cc1Cl
REMARK SMILES IDX 3 1 2 2 1 3 17 4 19 5 18 6 20 8 21 9 22 10 23 11 28 12 24 13
REMARK SMILES IDX 27 14 25 15 29 16 26 17 4 18 5 19 11 20 6 21 7 22 12 23
REMARK SMILES IDX 13 24 14 25 16 26 15 27 8 30 9 31 10 32
REMARK H PARENT 19 7 15 28 15 29
ROOT
ATOM      1  S   UNL     1      48.606  55.034  19.500  1.00  0.00    -0.073 SA
ENDROOT
BRANCH   1   2
ATOM      2  C   UNL     1      50.447  55.006  19.489  1.00  0.00    +0.141 C 
ATOM      3  C   UNL     1      51.005  55.435  20.843  1.00  0.00    +0.030 C 
BRANCH   2   4
ATOM      4  C   UNL     1      50.940  53.666  18.927  1.00  0.00    +0.233 C 
ATOM      5  N   UNL     1      50.076  52.594  19.049  1.00  0.00    -0.349 N 
ATOM      6  O   UNL     1      52.025  53.591  18.346  1.00  0.00    -0.274 OA
ATOM      7  H   UNL     1      49.102  52.855  19.130  1.00  0.00    +0.164 HD
BRANCH   5   8
ATOM      8  C   UNL     1      50.267  51.328  18.333  1.00  0.00    +0.110 C 
ATOM      9  C   UNL     1      51.205  50.346  19.051  1.00  0.00    +0.036 C 
BRANCH   8  10
ATOM     10  C   UNL     1      48.915  50.641  18.127  1.00  0.00    -0.007 A 
ATOM     11  C   UNL     1      48.673  49.396  18.750  1.00  0.00    +0.009 A 
ATOM     12  C   UNL     1      47.911  51.165  17.289  1.00  0.00    +0.047 A 
ATOM     13  C   UNL     1      47.470  48.710  18.545  1.00  0.00    +0.021 A 
ATOM     14  C   UNL     1      46.714  50.463  17.073  1.00  0.00    +0.041 A 
ATOM     15  C   UNL     1      46.501  49.243  17.699  1.00  0.00    +0.042 A 
ATOM     16 Cl   UNL     1      48.096  52.668  16.464  1.00  0.00    -0.084 Cl
ATOM     17 Cl   UNL     1      45.026  48.380  17.422  1.00  0.00    -0.084 Cl
ENDBRANCH   8  10
ENDBRANCH   5   8
ENDBRANCH   2   4
ENDBRANCH   1   2
BRANCH   1  18
ATOM     18  C   UNL     1      48.320  56.725  19.737  1.00  0.00    +0.191 A 
ATOM     19  N   UNL     1      48.007  57.283  20.876  1.00  0.00    -0.123 NA
ATOM     20  N   UNL     1      48.262  57.643  18.721  1.00  0.00    -0.305 N 
ATOM     21  N   UNL     1      47.707  58.596  20.614  1.00  0.00    -0.134 NA
ATOM     22  C   UNL     1      47.842  58.801  19.319  1.00  0.00    +0.136 A 
BRANCH  20  23
ATOM     23  C   UNL     1      48.442  57.409  17.298  1.00  0.00    +0.136 C 
BRANCH  23  24
ATOM     24  C   UNL     1      47.134  57.400  16.505  1.00  0.00    +0.121 C 
BRANCH  24  25
ATOM     25  C   UNL     1      47.355  57.175  15.025  1.00  0.00    +0.219 C 
ATOM     26  O   UNL     1      48.207  56.439  14.545  1.00  0.00    -0.275 OA
ATOM     27  N   UNL     1      46.544  57.915  14.220  1.00  0.00    -0.370 N 
ATOM     28  H   UNL     1      45.704  58.357  14.559  1.00  0.00    +0.159 HD
ATOM     29  H   UNL     1      46.623  57.738  13.226  1.00  0.00    +0.159 HD
ENDBRANCH  24  25
ENDBRANCH  23  24
ENDBRANCH  20  23
BRANCH  22  30
ATOM     30  C   UNL     1      47.501  60.147  18.618  1.00  0.00    +0.058 C 
ATOM     31  C   UNL     1      46.787  61.215  19.406  1.00  0.00    +0.012 C 
ATOM     32  C   UNL     1      46.065  60.495  18.308  1.00  0.00    +0.012 C 
ENDBRANCH  22  30
ENDBRANCH   1  18
TORSDOF 9
ENDMDL
