MODEL 1
REMARK VINA RESULT:    -7.669      0.000      0.000
REMARK INTER + INTRA:         -12.005
REMARK INTER:                 -11.256
REMARK INTRA:                  -0.749
REMARK UNBOUND:                -0.749
REMARK SMILES COCCCNC(=S)NNC(=O)Cc1nc(-c2cccs2)oc1C
REMARK SMILES IDX 9 1 7 2 8 3 6 4 10 7 11 8 12 9 13 11 14 12 23 13 22 14 15 15
REMARK SMILES IDX 16 16 24 17 17 18 18 19 21 20 19 21 20 22 5 23 4 24 3 25
REMARK SMILES IDX 2 26 1 27
REMARK H PARENT 9 5 6 6 10 10
ROOT
ATOM      1  N   UNL     1      51.441  52.266  22.363  1.00  0.00    -0.274 N 
ATOM      2  C   UNL     1      51.044  53.480  21.817  1.00  0.00    +0.185 C 
ATOM      3  S   UNL     1      49.974  53.616  20.533  1.00  0.00    -0.039 S 
ATOM      4  N   UNL     1      51.628  54.532  22.492  1.00  0.00    -0.361 N 
ATOM      5  H   UNL     1      52.289  52.224  22.928  1.00  0.00    +0.190 HD
ATOM      6  H   UNL     1      52.129  54.301  23.338  1.00  0.00    +0.162 HD
ENDROOT
BRANCH   1   7
ATOM      7  N   UNL     1      51.120  51.050  21.736  1.00  0.00    -0.268 N 
ATOM      8  C   UNL     1      52.030  50.561  20.815  1.00  0.00    +0.244 C 
ATOM      9  O   UNL     1      53.136  51.085  20.649  1.00  0.00    -0.273 OA
ATOM     10  H   UNL     1      50.135  50.782  21.740  1.00  0.00    +0.191 HD
BRANCH   8  11
ATOM     11  C   UNL     1      51.573  49.308  20.097  1.00  0.00    +0.161 C 
BRANCH  11  12
ATOM     12  C   UNL     1      50.381  49.565  19.249  1.00  0.00    +0.092 A 
ATOM     13  C   UNL     1      50.218  50.456  18.211  1.00  0.00    +0.125 A 
ATOM     14  O   UNL     1      48.947  50.312  17.734  1.00  0.00    -0.440 OA
ATOM     15  N   UNL     1      49.216  48.846  19.423  1.00  0.00    -0.213 NA
ATOM     16  C   UNL     1      48.381  49.324  18.515  1.00  0.00    +0.236 A 
ATOM     17  C   UNL     1      51.061  51.480  17.570  1.00  0.00    +0.090 C 
BRANCH  16  18
ATOM     18  C   UNL     1      47.028  48.874  18.328  1.00  0.00    +0.090 A 
ATOM     19  C   UNL     1      46.397  47.854  19.018  1.00  0.00    +0.025 A 
ATOM     20  S   UNL     1      45.980  49.585  17.173  1.00  0.00    -0.139 S 
ATOM     21  C   UNL     1      45.048  47.663  18.596  1.00  0.00    +0.012 A 
ATOM     22  C   UNL     1      44.694  48.537  17.591  1.00  0.00    +0.065 A 
ENDBRANCH  16  18
ENDBRANCH  11  12
ENDBRANCH   8  11
ENDBRANCH   1   7
BRANCH   4  23
ATOM     23  C   UNL     1      51.395  55.959  22.275  1.00  0.00    +0.117 C 
BRANCH  23  24
ATOM     24  C   UNL     1      52.357  56.525  21.229  1.00  0.00    +0.050 C 
BRANCH  24  25
ATOM     25  C   UNL     1      52.182  58.032  21.059  1.00  0.00    +0.161 C 
BRANCH  25  26
ATOM     26  O   UNL     1      53.411  58.738  21.230  1.00  0.00    -0.385 OA
ATOM     27  C   UNL     1      54.558  57.912  21.079  1.00  0.00    +0.194 C 
ENDBRANCH  25  26
ENDBRANCH  24  25
ENDBRANCH  23  24
ENDBRANCH   4  23
TORSDOF 8
ENDMDL
MODEL 2
REMARK VINA RESULT:    -7.668      2.983      8.093
REMARK INTER + INTRA:         -12.004
REMARK INTER:                 -11.087
REMARK INTRA:                  -0.917
REMARK UNBOUND:                -0.749
REMARK SMILES COCCCNC(=S)NNC(=O)Cc1nc(-c2cccs2)oc1C
REMARK SMILES IDX 9 1 7 2 8 3 6 4 10 7 11 8 12 9 13 11 14 12 23 13 22 14 15 15
REMARK SMILES IDX 16 16 24 17 17 18 18 19 21 20 19 21 20 22 5 23 4 24 3 25
REMARK SMILES IDX 2 26 1 27
REMARK H PARENT 9 5 6 6 10 10
ROOT
ATOM      1  N   UNL     1      50.287  51.152  16.914  1.00  0.00    -0.274 N 
ATOM      2  C   UNL     1      49.810  49.983  17.490  1.00  0.00    +0.185 C 
ATOM      3  S   UNL     1      49.775  49.708  19.144  1.00  0.00    -0.039 S 
ATOM      4  N   UNL     1      49.355  49.113  16.520  1.00  0.00    -0.361 N 
ATOM      5  H   UNL     1      50.552  51.155  15.929  1.00  0.00    +0.190 HD
ATOM      6  H   UNL     1      49.300  49.476  15.580  1.00  0.00    +0.162 HD
ENDROOT
BRANCH   1   7
ATOM      7  N   UNL     1      50.965  52.114  17.682  1.00  0.00    -0.268 N 
ATOM      8  C   UNL     1      52.324  51.925  17.866  1.00  0.00    +0.244 C 
ATOM      9  O   UNL     1      52.946  51.037  17.273  1.00  0.00    -0.273 OA
ATOM     10  H   UNL     1      50.393  52.681  18.310  1.00  0.00    +0.191 HD
BRANCH   8  11
ATOM     11  C   UNL     1      52.970  52.933  18.792  1.00  0.00    +0.161 C 
BRANCH  11  12
ATOM     12  C   UNL     1      51.995  53.491  19.763  1.00  0.00    +0.092 A 
ATOM     13  C   UNL     1      51.591  52.996  20.984  1.00  0.00    +0.125 A 
ATOM     14  O   UNL     1      50.687  53.873  21.511  1.00  0.00    -0.440 OA
ATOM     15  N   UNL     1      51.356  54.689  19.520  1.00  0.00    -0.213 NA
ATOM     16  C   UNL     1      50.577  54.881  20.573  1.00  0.00    +0.236 A 
ATOM     17  C   UNL     1      51.890  51.789  21.774  1.00  0.00    +0.090 C 
BRANCH  16  18
ATOM     18  C   UNL     1      49.708  56.012  20.755  1.00  0.00    +0.090 A 
ATOM     19  C   UNL     1      48.451  56.183  20.202  1.00  0.00    +0.025 A 
ATOM     20  S   UNL     1      50.145  57.351  21.732  1.00  0.00    -0.139 S 
ATOM     21  C   UNL     1      47.848  57.415  20.589  1.00  0.00    +0.012 A 
ATOM     22  C   UNL     1      48.667  58.152  21.417  1.00  0.00    +0.065 A 
ENDBRANCH  16  18
ENDBRANCH  11  12
ENDBRANCH   8  11
ENDBRANCH   1   7
BRANCH   4  23
ATOM     23  C   UNL     1      48.703  47.820  16.729  1.00  0.00    +0.117 C 
BRANCH  23  24
ATOM     24  C   UNL     1      47.202  47.905  16.446  1.00  0.00    +0.050 C 
BRANCH  24  25
ATOM     25  C   UNL     1      46.470  48.703  17.522  1.00  0.00    +0.161 C 
BRANCH  25  26
ATOM     26  O   UNL     1      46.413  48.002  18.764  1.00  0.00    -0.385 OA
ATOM     27  C   UNL     1      45.170  47.347  18.982  1.00  0.00    +0.194 C 
ENDBRANCH  25  26
ENDBRANCH  24  25
ENDBRANCH  23  24
ENDBRANCH   4  23
TORSDOF 8
ENDMDL
MODEL 3
REMARK VINA RESULT:    -7.407      3.013      8.703
REMARK INTER + INTRA:         -11.620
REMARK INTER:                 -10.712
REMARK INTRA:                  -0.908
REMARK UNBOUND:                -0.749
REMARK SMILES COCCCNC(=S)NNC(=O)Cc1nc(-c2cccs2)oc1C
REMARK SMILES IDX 9 1 7 2 8 3 6 4 10 7 11 8 12 9 13 11 14 12 23 13 22 14 15 15
REMARK SMILES IDX 16 16 24 17 17 18 18 19 21 20 19 21 20 22 5 23 4 24 3 25
REMARK SMILES IDX 2 26 1 27
REMARK H PARENT 9 5 6 6 10 10
ROOT
ATOM      1  N   UNL     1      49.225  48.530  17.269  1.00  0.00    -0.274 N 
ATOM      2  C   UNL     1      48.212  48.319  16.343  1.00  0.00    +0.185 C 
ATOM      3  S   UNL     1      47.999  49.256  14.969  1.00  0.00    -0.039 S 
ATOM      4  N   UNL     1      47.442  47.231  16.702  1.00  0.00    -0.361 N 
ATOM      5  H   UNL     1      49.139  48.135  18.205  1.00  0.00    +0.190 HD
ATOM      6  H   UNL     1      47.782  46.675  17.472  1.00  0.00    +0.162 HD
ENDROOT
BRANCH   1   7
ATOM      7  N   UNL     1      50.027  49.682  17.215  1.00  0.00    -0.268 N 
ATOM      8  C   UNL     1      50.148  50.417  18.383  1.00  0.00    +0.244 C 
ATOM      9  O   UNL     1      49.693  50.013  19.458  1.00  0.00    -0.273 OA
ATOM     10  H   UNL     1      50.192  50.080  16.289  1.00  0.00    +0.191 HD
BRANCH   8  11
ATOM     11  C   UNL     1      50.933  51.702  18.227  1.00  0.00    +0.161 C 
BRANCH  11  12
ATOM     12  C   UNL     1      50.078  52.898  18.431  1.00  0.00    +0.092 A 
ATOM     13  C   UNL     1      48.947  53.295  17.751  1.00  0.00    +0.125 A 
ATOM     14  O   UNL     1      48.507  54.457  18.316  1.00  0.00    -0.440 OA
ATOM     15  N   UNL     1      50.348  53.803  19.437  1.00  0.00    -0.213 NA
ATOM     16  C   UNL     1      49.403  54.722  19.333  1.00  0.00    +0.236 A 
ATOM     17  C   UNL     1      48.182  52.777  16.603  1.00  0.00    +0.090 C 
BRANCH  16  18
ATOM     18  C   UNL     1      49.287  55.879  20.180  1.00  0.00    +0.090 A 
ATOM     19  C   UNL     1      48.200  56.730  20.265  1.00  0.00    +0.025 A 
ATOM     20  S   UNL     1      50.542  56.362  21.243  1.00  0.00    -0.139 S 
ATOM     21  C   UNL     1      48.402  57.779  21.211  1.00  0.00    +0.012 A 
ATOM     22  C   UNL     1      49.639  57.700  21.811  1.00  0.00    +0.065 A 
ENDBRANCH  16  18
ENDBRANCH  11  12
ENDBRANCH   8  11
ENDBRANCH   1   7
BRANCH   4  23
ATOM     23  C   UNL     1      46.340  46.641  15.944  1.00  0.00    +0.117 C 
BRANCH  23  24
ATOM     24  C   UNL     1      45.036  46.677  16.744  1.00  0.00    +0.050 C 
BRANCH  24  25
ATOM     25  C   UNL     1      45.046  47.790  17.788  1.00  0.00    +0.161 C 
BRANCH  25  26
ATOM     26  O   UNL     1      45.458  47.320  19.071  1.00  0.00    -0.385 OA
ATOM     27  C   UNL     1      44.376  46.881  19.882  1.00  0.00    +0.194 C 
ENDBRANCH  25  26
ENDBRANCH  24  25
ENDBRANCH  23  24
ENDBRANCH   4  23
TORSDOF 8
ENDMDL
MODEL 4
REMARK VINA RESULT:    -7.187      1.977      2.379
REMARK INTER + INTRA:         -11.298
REMARK INTER:                 -10.261
REMARK INTRA:                  -1.037
REMARK UNBOUND:                -0.749
REMARK SMILES COCCCNC(=S)NNC(=O)Cc1nc(-c2cccs2)oc1C
REMARK SMILES IDX 9 1 7 2 8 3 6 4 10 7 11 8 12 9 13 11 14 12 23 13 22 14 15 15
REMARK SMILES IDX 16 16 24 17 17 18 18 19 21 20 19 21 20 22 5 23 4 24 3 25
REMARK SMILES IDX 2 26 1 27
REMARK H PARENT 9 5 6 6 10 10
ROOT
ATOM      1  N   UNL     1      50.679  54.313  18.777  1.00  0.00    -0.274 N 
ATOM      2  C   UNL     1      50.480  54.769  20.074  1.00  0.00    +0.185 C 
ATOM      3  S   UNL     1      50.568  53.785  21.429  1.00  0.00    -0.039 S 
ATOM      4  N   UNL     1      50.231  56.126  20.081  1.00  0.00    -0.361 N 
ATOM      5  H   UNL     1      50.336  54.867  17.993  1.00  0.00    +0.190 HD
ATOM      6  H   UNL     1      50.359  56.611  19.205  1.00  0.00    +0.162 HD
ENDROOT
BRANCH   1   7
ATOM      7  N   UNL     1      50.773  52.939  18.499  1.00  0.00    -0.268 N 
ATOM      8  C   UNL     1      52.037  52.437  18.240  1.00  0.00    +0.244 C 
ATOM      9  O   UNL     1      53.054  53.124  18.382  1.00  0.00    -0.273 OA
ATOM     10  H   UNL     1      49.917  52.478  18.186  1.00  0.00    +0.191 HD
BRANCH   8  11
ATOM     11  C   UNL     1      52.053  50.977  17.840  1.00  0.00    +0.161 C 
BRANCH  11  12
ATOM     12  C   UNL     1      50.771  50.303  18.167  1.00  0.00    +0.092 A 
ATOM     13  C   UNL     1      50.353  49.739  19.353  1.00  0.00    +0.125 A 
ATOM     14  O   UNL     1      49.091  49.254  19.162  1.00  0.00    -0.440 OA
ATOM     15  N   UNL     1      49.769  50.186  17.226  1.00  0.00    -0.213 NA
ATOM     16  C   UNL     1      48.790  49.548  17.847  1.00  0.00    +0.236 A 
ATOM     17  C   UNL     1      50.952  49.541  20.685  1.00  0.00    +0.090 C 
BRANCH  16  18
ATOM     18  C   UNL     1      47.531  49.195  17.247  1.00  0.00    +0.090 A 
ATOM     19  C   UNL     1      46.300  49.166  17.876  1.00  0.00    +0.025 A 
ATOM     20  S   UNL     1      47.399  48.749  15.597  1.00  0.00    -0.139 S 
ATOM     21  C   UNL     1      45.247  48.781  16.995  1.00  0.00    +0.012 A 
ATOM     22  C   UNL     1      45.709  48.519  15.724  1.00  0.00    +0.065 A 
ENDBRANCH  16  18
ENDBRANCH  11  12
ENDBRANCH   8  11
ENDBRANCH   1   7
BRANCH   4  23
ATOM     23  C   UNL     1      50.056  56.986  21.251  1.00  0.00    +0.117 C 
BRANCH  23  24
ATOM     24  C   UNL     1      51.314  57.813  21.523  1.00  0.00    +0.050 C 
BRANCH  24  25
ATOM     25  C   UNL     1      52.451  56.948  22.060  1.00  0.00    +0.161 C 
BRANCH  25  26
ATOM     26  O   UNL     1      53.412  56.637  21.051  1.00  0.00    -0.385 OA
ATOM     27  C   UNL     1      54.126  57.775  20.585  1.00  0.00    +0.194 C 
ENDBRANCH  25  26
ENDBRANCH  24  25
ENDBRANCH  23  24
ENDBRANCH   4  23
TORSDOF 8
ENDMDL
MODEL 5
REMARK VINA RESULT:    -6.827      3.260      4.961
REMARK INTER + INTRA:         -10.768
REMARK INTER:                  -9.810
REMARK INTRA:                  -0.958
REMARK UNBOUND:                -0.749
REMARK SMILES COCCCNC(=S)NNC(=O)Cc1nc(-c2cccs2)oc1C
REMARK SMILES IDX 9 1 7 2 8 3 6 4 10 7 11 8 12 9 13 11 14 12 23 13 22 14 15 15
REMARK SMILES IDX 16 16 24 17 17 18 18 19 21 20 19 21 20 22 5 23 4 24 3 25
REMARK SMILES IDX 2 26 1 27
REMARK H PARENT 9 5 6 6 10 10
ROOT
ATOM      1  N   UNL     1      50.723  51.085  17.377  1.00  0.00    -0.274 N 
ATOM      2  C   UNL     1      51.662  51.480  18.320  1.00  0.00    +0.185 C 
ATOM      3  S   UNL     1      52.442  50.417  19.356  1.00  0.00    -0.039 S 
ATOM      4  N   UNL     1      51.871  52.843  18.260  1.00  0.00    -0.361 N 
ATOM      5  H   UNL     1      50.082  51.776  16.986  1.00  0.00    +0.190 HD
ATOM      6  H   UNL     1      51.443  53.329  17.485  1.00  0.00    +0.162 HD
ENDROOT
BRANCH   1   7
ATOM      7  N   UNL     1      50.214  49.776  17.366  1.00  0.00    -0.268 N 
ATOM      8  C   UNL     1      48.889  49.615  17.736  1.00  0.00    +0.244 C 
ATOM      9  O   UNL     1      48.145  50.581  17.932  1.00  0.00    -0.273 OA
ATOM     10  H   UNL     1      50.899  49.020  17.411  1.00  0.00    +0.191 HD
BRANCH   8  11
ATOM     11  C   UNL     1      48.437  48.172  17.809  1.00  0.00    +0.161 C 
BRANCH  11  12
ATOM     12  C   UNL     1      47.132  47.969  17.131  1.00  0.00    +0.092 A 
ATOM     13  C   UNL     1      45.895  47.689  17.672  1.00  0.00    +0.125 A 
ATOM     14  O   UNL     1      45.000  47.606  16.645  1.00  0.00    -0.440 OA
ATOM     15  N   UNL     1      47.018  48.076  15.760  1.00  0.00    -0.213 NA
ATOM     16  C   UNL     1      45.741  47.843  15.504  1.00  0.00    +0.236 A 
ATOM     17  C   UNL     1      45.379  47.451  19.032  1.00  0.00    +0.090 C 
BRANCH  16  18
ATOM     18  C   UNL     1      45.154  47.842  14.191  1.00  0.00    +0.090 A 
ATOM     19  C   UNL     1      45.767  48.238  13.016  1.00  0.00    +0.025 A 
ATOM     20  S   UNL     1      43.546  47.319  13.909  1.00  0.00    -0.139 S 
ATOM     21  C   UNL     1      44.911  48.106  11.883  1.00  0.00    +0.012 A 
ATOM     22  C   UNL     1      43.669  47.621  12.230  1.00  0.00    +0.065 A 
ENDBRANCH  16  18
ENDBRANCH  11  12
ENDBRANCH   8  11
ENDBRANCH   1   7
BRANCH   4  23
ATOM     23  C   UNL     1      52.841  53.623  19.027  1.00  0.00    +0.117 C 
BRANCH  23  24
ATOM     24  C   UNL     1      52.226  54.930  19.531  1.00  0.00    +0.050 C 
BRANCH  24  25
ATOM     25  C   UNL     1      51.534  54.744  20.879  1.00  0.00    +0.161 C 
BRANCH  25  26
ATOM     26  O   UNL     1      51.906  53.518  21.509  1.00  0.00    -0.385 OA
ATOM     27  C   UNL     1      50.792  52.717  21.880  1.00  0.00    +0.194 C 
ENDBRANCH  25  26
ENDBRANCH  24  25
ENDBRANCH  23  24
ENDBRANCH   4  23
TORSDOF 8
ENDMDL
