MODEL 1
REMARK VINA RESULT:    -7.224      0.000      0.000
REMARK INTER + INTRA:          -9.883
REMARK INTER:                  -9.336
REMARK INTRA:                  -0.547
REMARK UNBOUND:                -0.547
REMARK SMILES C=CC/[NH+]=C(\N)SCC(=O)N1C[C@H](C)C[C@@H](C)C1
REMARK SMILES IDX 7 1 8 2 9 3 13 4 15 5 12 6 16 7 11 8 18 9 10 10 14 11 17 12
REMARK SMILES IDX 5 13 4 14 6 15 3 19 2 20 1 21
REMARK H PARENT 4 16 6 17 6 18
ROOT
ATOM      1  S   UNL     1      52.354  51.397  20.609  1.00  0.00    -0.029 SA
ENDROOT
BRANCH   1   2
ATOM      2  C   UNL     1      52.495  52.476  19.147  1.00  0.00    +0.182 C 
BRANCH   2   3
ATOM      3  C   UNL     1      51.219  53.266  18.876  1.00  0.00    +0.233 C 
ATOM      4  C   UNL     1      51.799  55.990  21.360  1.00  0.00    +0.006 C 
ATOM      5  C   UNL     1      50.528  56.824  21.141  1.00  0.00    +0.010 C 
ATOM      6  C   UNL     1      52.195  55.267  20.068  1.00  0.00    +0.122 C 
ATOM      7  C   UNL     1      49.387  55.998  20.528  1.00  0.00    +0.006 C 
ATOM      8  N   UNL     1      51.081  54.500  19.499  1.00  0.00    -0.341 N 
ATOM      9  C   UNL     1      49.857  55.272  19.263  1.00  0.00    +0.122 C 
ATOM     10  O   UNL     1      50.355  52.821  18.110  1.00  0.00    -0.274 OA
ATOM     11  C   UNL     1      51.645  55.002  22.520  1.00  0.00    +0.009 C 
ATOM     12  C   UNL     1      48.182  56.886  20.224  1.00  0.00    +0.009 C 
ENDBRANCH   2   3
ENDBRANCH   1   2
BRANCH   1  13
ATOM     13  C   UNL     1      51.674  49.956  19.949  1.00  0.00    +0.302 C 
ATOM     14  N   UNL     1      50.416  49.927  19.590  1.00  0.00    -0.265 N 
ATOM     15  N   UNL     1      52.475  48.921  19.884  1.00  0.00    -0.282 N 
ATOM     16  H   UNL     1      49.908  50.811  19.726  1.00  0.00    +0.306 HD
ATOM     17  H   UNL     1      53.422  49.030  20.226  1.00  0.00    +0.302 HD
ATOM     18  H   UNL     1      52.160  48.012  19.584  1.00  0.00    +0.302 HD
BRANCH  14  19
ATOM     19  C   UNL     1      49.666  48.821  19.014  1.00  0.00    +0.262 C 
BRANCH  19  20
ATOM     20  C   UNL     1      48.391  49.297  18.394  1.00  0.00    +0.010 C 
ATOM     21  C   UNL     1      47.141  48.877  18.643  1.00  0.00    +0.008 C 
ENDBRANCH  19  20
ENDBRANCH  14  19
ENDBRANCH   1  13
TORSDOF 5
ENDMDL
MODEL 2
REMARK VINA RESULT:    -6.181      2.177      6.743
REMARK INTER + INTRA:          -8.535
REMARK INTER:                  -8.301
REMARK INTRA:                  -0.234
REMARK UNBOUND:                -0.547
REMARK SMILES C=CC/[NH+]=C(\N)SCC(=O)N1C[C@H](C)C[C@@H](C)C1
REMARK SMILES IDX 7 1 8 2 9 3 13 4 15 5 12 6 16 7 11 8 18 9 10 10 14 11 17 12
REMARK SMILES IDX 5 13 4 14 6 15 3 19 2 20 1 21
REMARK H PARENT 4 16 6 17 6 18
ROOT
ATOM      1  S   UNL     1      50.308  52.869  18.858  1.00  0.00    -0.029 SA
ENDROOT
BRANCH   1   2
ATOM      2  C   UNL     1      51.139  51.267  18.603  1.00  0.00    +0.182 C 
BRANCH   2   3
ATOM      3  C   UNL     1      50.266  50.082  19.007  1.00  0.00    +0.233 C 
ATOM      4  C   UNL     1      47.566  50.586  16.480  1.00  0.00    +0.006 C 
ATOM      5  C   UNL     1      46.640  49.417  16.846  1.00  0.00    +0.010 C 
ATOM      6  C   UNL     1      49.022  50.241  16.815  1.00  0.00    +0.122 C 
ATOM      7  C   UNL     1      46.838  48.946  18.294  1.00  0.00    +0.006 C 
ATOM      8  N   UNL     1      49.177  49.781  18.200  1.00  0.00    -0.341 N 
ATOM      9  C   UNL     1      48.317  48.654  18.576  1.00  0.00    +0.122 C 
ATOM     10  O   UNL     1      50.543  49.412  20.009  1.00  0.00    -0.274 OA
ATOM     11  C   UNL     1      47.139  51.891  17.157  1.00  0.00    +0.009 C 
ATOM     12  C   UNL     1      45.981  47.715  18.584  1.00  0.00    +0.009 C 
ENDBRANCH   2   3
ENDBRANCH   1   2
BRANCH   1  13
ATOM     13  C   UNL     1      51.624  53.919  19.233  1.00  0.00    +0.302 C 
ATOM     14  N   UNL     1      51.399  55.172  19.536  1.00  0.00    -0.265 N 
ATOM     15  N   UNL     1      52.821  53.393  19.148  1.00  0.00    -0.282 N 
ATOM     16  H   UNL     1      50.407  55.445  19.536  1.00  0.00    +0.306 HD
ATOM     17  H   UNL     1      52.895  52.424  18.865  1.00  0.00    +0.302 HD
ATOM     18  H   UNL     1      53.660  53.937  19.274  1.00  0.00    +0.302 HD
BRANCH  14  19
ATOM     19  C   UNL     1      52.364  56.205  19.884  1.00  0.00    +0.262 C 
BRANCH  19  20
ATOM     20  C   UNL     1      52.377  56.457  21.358  1.00  0.00    +0.010 C 
ATOM     21  C   UNL     1      51.443  56.130  22.264  1.00  0.00    +0.008 C 
ENDBRANCH  19  20
ENDBRANCH  14  19
ENDBRANCH   1  13
TORSDOF 5
ENDMDL
MODEL 3
REMARK VINA RESULT:    -6.075      2.727      7.240
REMARK INTER + INTRA:          -8.398
REMARK INTER:                  -8.173
REMARK INTRA:                  -0.226
REMARK UNBOUND:                -0.547
REMARK SMILES C=CC/[NH+]=C(\N)SCC(=O)N1C[C@H](C)C[C@@H](C)C1
REMARK SMILES IDX 7 1 8 2 9 3 13 4 15 5 12 6 16 7 11 8 18 9 10 10 14 11 17 12
REMARK SMILES IDX 5 13 4 14 6 15 3 19 2 20 1 21
REMARK H PARENT 4 16 6 17 6 18
ROOT
ATOM      1  S   UNL     1      49.890  52.216  18.190  1.00  0.00    -0.029 SA
ENDROOT
BRANCH   1   2
ATOM      2  C   UNL     1      49.797  50.403  18.032  1.00  0.00    +0.182 C 
BRANCH   2   3
ATOM      3  C   UNL     1      49.345  49.957  16.645  1.00  0.00    +0.233 C 
ATOM      4  C   UNL     1      45.826  49.091  17.538  1.00  0.00    +0.006 C 
ATOM      5  C   UNL     1      45.314  48.619  16.170  1.00  0.00    +0.010 C 
ATOM      6  C   UNL     1      46.931  50.139  17.365  1.00  0.00    +0.122 C 
ATOM      7  C   UNL     1      46.452  48.160  15.247  1.00  0.00    +0.006 C 
ATOM      8  N   UNL     1      47.996  49.678  16.467  1.00  0.00    -0.341 N 
ATOM      9  C   UNL     1      47.540  49.235  15.145  1.00  0.00    +0.122 C 
ATOM     10  O   UNL     1      50.158  49.871  15.716  1.00  0.00    -0.274 OA
ATOM     11  C   UNL     1      46.305  47.924  18.406  1.00  0.00    +0.009 C 
ATOM     12  C   UNL     1      45.914  47.805  13.862  1.00  0.00    +0.009 C 
ENDBRANCH   2   3
ENDBRANCH   1   2
BRANCH   1  13
ATOM     13  C   UNL     1      50.939  52.423  19.542  1.00  0.00    +0.302 C 
ATOM     14  N   UNL     1      50.527  53.070  20.602  1.00  0.00    -0.265 N 
ATOM     15  N   UNL     1      52.150  51.939  19.408  1.00  0.00    -0.282 N 
ATOM     16  H   UNL     1      49.559  53.414  20.548  1.00  0.00    +0.306 HD
ATOM     17  H   UNL     1      52.389  51.491  18.533  1.00  0.00    +0.302 HD
ATOM     18  H   UNL     1      52.864  52.070  20.108  1.00  0.00    +0.302 HD
BRANCH  14  19
ATOM     19  C   UNL     1      51.252  53.343  21.834  1.00  0.00    +0.262 C 
BRANCH  19  20
ATOM     20  C   UNL     1      51.645  54.783  21.923  1.00  0.00    +0.010 C 
ATOM     21  C   UNL     1      50.886  55.866  21.692  1.00  0.00    +0.008 C 
ENDBRANCH  19  20
ENDBRANCH  14  19
ENDBRANCH   1  13
TORSDOF 5
ENDMDL
MODEL 4
REMARK VINA RESULT:    -5.869      1.543      1.777
REMARK INTER + INTRA:          -8.132
REMARK INTER:                  -7.559
REMARK INTRA:                  -0.573
REMARK UNBOUND:                -0.547
REMARK SMILES C=CC/[NH+]=C(\N)SCC(=O)N1C[C@H](C)C[C@@H](C)C1
REMARK SMILES IDX 7 1 8 2 9 3 13 4 15 5 12 6 16 7 11 8 18 9 10 10 14 11 17 12
REMARK SMILES IDX 5 13 4 14 6 15 3 19 2 20 1 21
REMARK H PARENT 4 16 6 17 6 18
ROOT
ATOM      1  S   UNL     1      51.590  50.100  19.534  1.00  0.00    -0.029 SA
ENDROOT
BRANCH   1   2
ATOM      2  C   UNL     1      51.686  51.215  18.096  1.00  0.00    +0.182 C 
BRANCH   2   3
ATOM      3  C   UNL     1      50.556  52.239  18.071  1.00  0.00    +0.233 C 
ATOM      4  C   UNL     1      51.822  54.425  20.819  1.00  0.00    +0.006 C 
ATOM      5  C   UNL     1      50.709  55.483  20.850  1.00  0.00    +0.010 C 
ATOM      6  C   UNL     1      51.973  53.847  19.407  1.00  0.00    +0.122 C 
ATOM      7  C   UNL     1      49.391  54.961  20.259  1.00  0.00    +0.006 C 
ATOM      8  N   UNL     1      50.696  53.371  18.864  1.00  0.00    -0.341 N 
ATOM      9  C   UNL     1      49.616  54.364  18.865  1.00  0.00    +0.122 C 
ATOM     10  O   UNL     1      49.566  52.065  17.349  1.00  0.00    -0.274 OA
ATOM     11  C   UNL     1      51.587  53.314  21.846  1.00  0.00    +0.009 C 
ATOM     12  C   UNL     1      48.345  56.073  20.206  1.00  0.00    +0.009 C 
ENDBRANCH   2   3
ENDBRANCH   1   2
BRANCH   1  13
ATOM     13  C   UNL     1      50.132  49.228  19.237  1.00  0.00    +0.302 C 
ATOM     14  N   UNL     1      49.767  48.956  18.010  1.00  0.00    -0.265 N 
ATOM     15  N   UNL     1      49.425  48.915  20.295  1.00  0.00    -0.282 N 
ATOM     16  H   UNL     1      50.413  49.290  17.283  1.00  0.00    +0.306 HD
ATOM     17  H   UNL     1      49.770  49.206  21.201  1.00  0.00    +0.302 HD
ATOM     18  H   UNL     1      48.522  48.471  20.229  1.00  0.00    +0.302 HD
BRANCH  14  19
ATOM     19  C   UNL     1      48.587  48.234  17.557  1.00  0.00    +0.262 C 
BRANCH  19  20
ATOM     20  C   UNL     1      47.635  49.144  16.848  1.00  0.00    +0.010 C 
ATOM     21  C   UNL     1      46.725  48.828  15.915  1.00  0.00    +0.008 C 
ENDBRANCH  19  20
ENDBRANCH  14  19
ENDBRANCH   1  13
TORSDOF 5
ENDMDL
MODEL 5
REMARK VINA RESULT:    -5.540      2.717      7.298
REMARK INTER + INTRA:          -7.706
REMARK INTER:                  -7.526
REMARK INTRA:                  -0.180
REMARK UNBOUND:                -0.547
REMARK SMILES C=CC/[NH+]=C(\N)SCC(=O)N1C[C@H](C)C[C@@H](C)C1
REMARK SMILES IDX 7 1 8 2 9 3 13 4 15 5 12 6 16 7 11 8 18 9 10 10 14 11 17 12
REMARK SMILES IDX 5 13 4 14 6 15 3 19 2 20 1 21
REMARK H PARENT 4 16 6 17 6 18
ROOT
ATOM      1  S   UNL     1      49.206  53.774  18.106  1.00  0.00    -0.029 SA
ENDROOT
BRANCH   1   2
ATOM      2  C   UNL     1      49.171  52.045  17.531  1.00  0.00    +0.182 C 
BRANCH   2   3
ATOM      3  C   UNL     1      47.753  51.535  17.289  1.00  0.00    +0.233 C 
ATOM      4  C   UNL     1      48.624  47.958  16.675  1.00  0.00    +0.006 C 
ATOM      5  C   UNL     1      47.223  47.386  16.411  1.00  0.00    +0.010 C 
ATOM      6  C   UNL     1      48.542  49.159  17.623  1.00  0.00    +0.122 C 
ATOM      7  C   UNL     1      46.231  48.463  15.950  1.00  0.00    +0.006 C 
ATOM      8  N   UNL     1      47.576  50.163  17.164  1.00  0.00    -0.341 N 
ATOM      9  C   UNL     1      46.224  49.651  16.919  1.00  0.00    +0.122 C 
ATOM     10  O   UNL     1      46.803  52.326  17.229  1.00  0.00    -0.274 OA
ATOM     11  C   UNL     1      49.346  48.329  15.377  1.00  0.00    +0.009 C 
ATOM     12  C   UNL     1      44.827  47.878  15.805  1.00  0.00    +0.009 C 
ENDBRANCH   2   3
ENDBRANCH   1   2
BRANCH   1  13
ATOM     13  C   UNL     1      50.477  53.757  19.271  1.00  0.00    +0.302 C 
ATOM     14  N   UNL     1      50.197  53.745  20.549  1.00  0.00    -0.265 N 
ATOM     15  N   UNL     1      51.696  53.804  18.792  1.00  0.00    -0.282 N 
ATOM     16  H   UNL     1      49.193  53.735  20.771  1.00  0.00    +0.306 HD
ATOM     17  H   UNL     1      51.810  53.854  17.787  1.00  0.00    +0.302 HD
ATOM     18  H   UNL     1      52.507  53.873  19.385  1.00  0.00    +0.302 HD
BRANCH  14  19
ATOM     19  C   UNL     1      51.118  53.724  21.676  1.00  0.00    +0.262 C 
BRANCH  19  20
ATOM     20  C   UNL     1      51.697  55.080  21.927  1.00  0.00    +0.010 C 
ATOM     21  C   UNL     1      51.045  56.242  22.094  1.00  0.00    +0.008 C 
ENDBRANCH  19  20
ENDBRANCH  14  19
ENDBRANCH   1  13
TORSDOF 5
ENDMDL
