MODEL 1
REMARK VINA RESULT:    -8.642      0.000      0.000
REMARK INTER + INTRA:         -11.221
REMARK INTER:                 -10.915
REMARK INTRA:                  -0.306
REMARK UNBOUND:                -0.306
REMARK SMILES CS(=O)(=O)Nc1cccc(NC(=O)c2ccccc2O)c1
REMARK SMILES IDX 6 1 7 2 8 3 9 4 10 5 21 6 5 7 2 9 3 10 4 11 1 12 11 13 12 14
REMARK SMILES IDX 13 15 14 17 15 18 19 19 16 20 18 21 17 22 20 23
REMARK H PARENT 5 8 11 16 20 24
ROOT
ATOM      1  C   UNL     1      50.552  56.864  21.769  1.00  0.00    +0.051 A 
ATOM      2  C   UNL     1      49.638  57.916  21.800  1.00  0.00    +0.027 A 
ATOM      3  C   UNL     1      48.444  57.811  21.088  1.00  0.00    +0.004 A 
ATOM      4  C   UNL     1      48.163  56.660  20.346  1.00  0.00    +0.026 A 
ATOM      5  C   UNL     1      49.073  55.602  20.308  1.00  0.00    +0.043 A 
ATOM      6  C   UNL     1      50.272  55.713  21.028  1.00  0.00    +0.052 A 
ENDROOT
BRANCH   1   7
ATOM      7  N   UNL     1      51.774  56.984  22.502  1.00  0.00    -0.284 N 
ATOM      8  H   UNL     1      51.663  57.407  23.427  1.00  0.00    +0.180 HD
BRANCH   7   9
ATOM      9  S   UNL     1      53.079  57.747  21.733  1.00  0.00    +0.229 S 
ATOM     10  O   UNL     1      52.767  59.124  21.426  1.00  0.00    -0.207 OA
ATOM     11  O   UNL     1      54.252  57.378  22.495  1.00  0.00    -0.207 OA
ATOM     12  C   UNL     1      53.119  56.842  20.204  1.00  0.00    +0.183 C 
ENDBRANCH   7   9
ENDBRANCH   1   7
BRANCH   5  13
ATOM     13  N   UNL     1      48.875  54.419  19.562  1.00  0.00    -0.322 N 
ATOM     14  C   UNL     1      48.695  54.311  18.197  1.00  0.00    +0.259 C 
ATOM     15  O   UNL     1      48.552  55.238  17.402  1.00  0.00    -0.269 OA
ATOM     16  H   UNL     1      48.804  53.570  20.108  1.00  0.00    +0.170 HD
BRANCH  14  17
ATOM     17  C   UNL     1      48.600  52.924  17.656  1.00  0.00    +0.081 A 
ATOM     18  C   UNL     1      47.372  52.374  17.253  1.00  0.00    +0.018 A 
ATOM     19  C   UNL     1      49.757  52.133  17.569  1.00  0.00    +0.128 A 
ATOM     20  C   UNL     1      47.317  51.078  16.733  1.00  0.00    +0.001 A 
ATOM     21  C   UNL     1      49.701  50.844  17.044  1.00  0.00    +0.047 A 
ATOM     22  C   UNL     1      48.480  50.318  16.621  1.00  0.00    +0.004 A 
BRANCH  19  23
ATOM     23  O   UNL     1      50.989  52.562  17.987  1.00  0.00    -0.507 OA
ATOM     24  H   UNL     1      50.849  53.233  18.692  1.00  0.00    +0.293 HD
ENDBRANCH  19  23
ENDBRANCH  14  17
ENDBRANCH   5  13
TORSDOF 5
ENDMDL
MODEL 2
REMARK VINA RESULT:    -8.612      3.368      7.363
REMARK INTER + INTRA:         -11.183
REMARK INTER:                 -10.520
REMARK INTRA:                  -0.663
REMARK UNBOUND:                -0.306
REMARK SMILES CS(=O)(=O)Nc1cccc(NC(=O)c2ccccc2O)c1
REMARK SMILES IDX 6 1 7 2 8 3 9 4 10 5 21 6 5 7 2 9 3 10 4 11 1 12 11 13 12 14
REMARK SMILES IDX 13 15 14 17 15 18 19 19 16 20 18 21 17 22 20 23
REMARK H PARENT 5 8 11 16 20 24
ROOT
ATOM      1  C   UNL     1      51.134  51.015  18.330  1.00  0.00    +0.051 A 
ATOM      2  C   UNL     1      51.668  50.132  19.267  1.00  0.00    +0.027 A 
ATOM      3  C   UNL     1      51.630  50.458  20.621  1.00  0.00    +0.004 A 
ATOM      4  C   UNL     1      51.061  51.665  21.040  1.00  0.00    +0.026 A 
ATOM      5  C   UNL     1      50.525  52.556  20.109  1.00  0.00    +0.043 A 
ATOM      6  C   UNL     1      50.565  52.221  18.748  1.00  0.00    +0.052 A 
ENDROOT
BRANCH   1   7
ATOM      7  N   UNL     1      51.181  50.668  16.943  1.00  0.00    -0.284 N 
ATOM      8  H   UNL     1      51.622  51.378  16.353  1.00  0.00    +0.180 HD
BRANCH   7   9
ATOM      9  S   UNL     1      49.729  50.201  16.202  1.00  0.00    +0.229 S 
ATOM     10  O   UNL     1      49.144  49.067  16.879  1.00  0.00    -0.207 OA
ATOM     11  O   UNL     1      48.992  51.426  15.979  1.00  0.00    -0.207 OA
ATOM     12  C   UNL     1      50.341  49.643  14.629  1.00  0.00    +0.183 C 
ENDBRANCH   7   9
ENDBRANCH   1   7
BRANCH   5  13
ATOM     13  N   UNL     1      49.958  53.805  20.450  1.00  0.00    -0.322 N 
ATOM     14  C   UNL     1      50.619  55.005  20.622  1.00  0.00    +0.259 C 
ATOM     15  O   UNL     1      51.837  55.176  20.630  1.00  0.00    -0.269 OA
ATOM     16  H   UNL     1      48.964  53.791  20.640  1.00  0.00    +0.170 HD
BRANCH  14  17
ATOM     17  C   UNL     1      49.759  56.195  20.891  1.00  0.00    +0.081 A 
ATOM     18  C   UNL     1      48.551  56.398  20.204  1.00  0.00    +0.018 A 
ATOM     19  C   UNL     1      50.173  57.151  21.831  1.00  0.00    +0.128 A 
ATOM     20  C   UNL     1      47.757  57.512  20.490  1.00  0.00    +0.001 A 
ATOM     21  C   UNL     1      49.376  58.258  22.120  1.00  0.00    +0.047 A 
ATOM     22  C   UNL     1      48.165  58.435  21.452  1.00  0.00    +0.004 A 
BRANCH  19  23
ATOM     23  O   UNL     1      51.359  57.068  22.512  1.00  0.00    -0.507 OA
ATOM     24  H   UNL     1      51.310  57.687  23.274  1.00  0.00    +0.293 HD
ENDBRANCH  19  23
ENDBRANCH  14  17
ENDBRANCH   5  13
TORSDOF 5
ENDMDL
MODEL 3
REMARK VINA RESULT:    -8.041      2.821      6.636
REMARK INTER + INTRA:         -10.463
REMARK INTER:                 -10.520
REMARK INTRA:                   0.057
REMARK UNBOUND:                -0.306
REMARK SMILES CS(=O)(=O)Nc1cccc(NC(=O)c2ccccc2O)c1
REMARK SMILES IDX 6 1 7 2 8 3 9 4 10 5 21 6 5 7 2 9 3 10 4 11 1 12 11 13 12 14
REMARK SMILES IDX 13 15 14 17 15 18 19 19 16 20 18 21 17 22 20 23
REMARK H PARENT 5 8 11 16 20 24
ROOT
ATOM      1  C   UNL     1      50.913  51.199  17.772  1.00  0.00    +0.051 A 
ATOM      2  C   UNL     1      50.073  50.623  16.821  1.00  0.00    +0.027 A 
ATOM      3  C   UNL     1      48.873  51.250  16.491  1.00  0.00    +0.004 A 
ATOM      4  C   UNL     1      48.511  52.450  17.111  1.00  0.00    +0.026 A 
ATOM      5  C   UNL     1      49.346  53.034  18.066  1.00  0.00    +0.043 A 
ATOM      6  C   UNL     1      50.553  52.399  18.391  1.00  0.00    +0.052 A 
ENDROOT
BRANCH   1   7
ATOM      7  N   UNL     1      52.141  50.544  18.102  1.00  0.00    -0.284 N 
ATOM      8  H   UNL     1      52.320  49.698  17.555  1.00  0.00    +0.180 HD
BRANCH   7   9
ATOM      9  S   UNL     1      52.423  50.181  19.734  1.00  0.00    +0.229 S 
ATOM     10  O   UNL     1      53.531  49.264  19.877  1.00  0.00    -0.207 OA
ATOM     11  O   UNL     1      52.383  51.449  20.429  1.00  0.00    -0.207 OA
ATOM     12  C   UNL     1      50.930  49.300  20.126  1.00  0.00    +0.183 C 
ENDBRANCH   7   9
ENDBRANCH   1   7
BRANCH   5  13
ATOM     13  N   UNL     1      49.039  54.229  18.755  1.00  0.00    -0.322 N 
ATOM     14  C   UNL     1      49.392  54.564  20.048  1.00  0.00    +0.259 C 
ATOM     15  O   UNL     1      49.933  53.830  20.872  1.00  0.00    -0.269 OA
ATOM     16  H   UNL     1      48.447  54.878  18.253  1.00  0.00    +0.170 HD
BRANCH  14  17
ATOM     17  C   UNL     1      49.014  55.936  20.495  1.00  0.00    +0.081 A 
ATOM     18  C   UNL     1      47.850  56.567  20.028  1.00  0.00    +0.018 A 
ATOM     19  C   UNL     1      49.851  56.630  21.384  1.00  0.00    +0.128 A 
ATOM     20  C   UNL     1      47.512  57.846  20.480  1.00  0.00    +0.001 A 
ATOM     21  C   UNL     1      49.508  57.902  21.838  1.00  0.00    +0.047 A 
ATOM     22  C   UNL     1      48.335  58.509  21.389  1.00  0.00    +0.004 A 
BRANCH  19  23
ATOM     23  O   UNL     1      51.032  56.120  21.853  1.00  0.00    -0.507 OA
ATOM     24  H   UNL     1      51.379  56.743  22.529  1.00  0.00    +0.293 HD
ENDBRANCH  19  23
ENDBRANCH  14  17
ENDBRANCH   5  13
TORSDOF 5
ENDMDL
MODEL 4
REMARK VINA RESULT:    -7.782      2.910      4.543
REMARK INTER + INTRA:         -10.136
REMARK INTER:                  -9.710
REMARK INTRA:                  -0.425
REMARK UNBOUND:                -0.306
REMARK SMILES CS(=O)(=O)Nc1cccc(NC(=O)c2ccccc2O)c1
REMARK SMILES IDX 6 1 7 2 8 3 9 4 10 5 21 6 5 7 2 9 3 10 4 11 1 12 11 13 12 14
REMARK SMILES IDX 13 15 14 17 15 18 19 19 16 20 18 21 17 22 20 23
REMARK H PARENT 5 8 11 16 20 24
ROOT
ATOM      1  C   UNL     1      51.081  53.931  19.351  1.00  0.00    +0.051 A 
ATOM      2  C   UNL     1      52.400  53.582  19.064  1.00  0.00    +0.027 A 
ATOM      3  C   UNL     1      52.669  52.374  18.424  1.00  0.00    +0.004 A 
ATOM      4  C   UNL     1      51.625  51.514  18.071  1.00  0.00    +0.026 A 
ATOM      5  C   UNL     1      50.301  51.854  18.356  1.00  0.00    +0.043 A 
ATOM      6  C   UNL     1      50.037  53.072  18.998  1.00  0.00    +0.052 A 
ENDROOT
BRANCH   1   7
ATOM      7  N   UNL     1      50.818  55.173  20.010  1.00  0.00    -0.284 N 
ATOM      8  H   UNL     1      50.802  55.980  19.382  1.00  0.00    +0.180 HD
BRANCH   7   9
ATOM      9  S   UNL     1      51.783  55.571  21.347  1.00  0.00    +0.229 S 
ATOM     10  O   UNL     1      51.872  54.463  22.270  1.00  0.00    -0.207 OA
ATOM     11  O   UNL     1      52.960  56.212  20.802  1.00  0.00    -0.207 OA
ATOM     12  C   UNL     1      50.779  56.830  22.099  1.00  0.00    +0.183 C 
ENDBRANCH   7   9
ENDBRANCH   1   7
BRANCH   5  13
ATOM     13  N   UNL     1      49.195  51.028  18.056  1.00  0.00    -0.322 N 
ATOM     14  C   UNL     1      48.974  49.735  18.488  1.00  0.00    +0.259 C 
ATOM     15  O   UNL     1      49.763  49.027  19.111  1.00  0.00    -0.269 OA
ATOM     16  H   UNL     1      48.524  51.421  17.408  1.00  0.00    +0.170 HD
BRANCH  14  17
ATOM     17  C   UNL     1      47.670  49.125  18.094  1.00  0.00    +0.081 A 
ATOM     18  C   UNL     1      46.918  48.353  18.995  1.00  0.00    +0.018 A 
ATOM     19  C   UNL     1      47.190  49.301  16.787  1.00  0.00    +0.128 A 
ATOM     20  C   UNL     1      45.691  47.811  18.603  1.00  0.00    +0.001 A 
ATOM     21  C   UNL     1      45.963  48.765  16.401  1.00  0.00    +0.047 A 
ATOM     22  C   UNL     1      45.211  48.023  17.311  1.00  0.00    +0.004 A 
BRANCH  19  23
ATOM     23  O   UNL     1      47.876  49.992  15.824  1.00  0.00    -0.507 OA
ATOM     24  H   UNL     1      48.688  50.359  16.241  1.00  0.00    +0.293 HD
ENDBRANCH  19  23
ENDBRANCH  14  17
ENDBRANCH   5  13
TORSDOF 5
ENDMDL
MODEL 5
REMARK VINA RESULT:    -7.723      2.510      3.753
REMARK INTER + INTRA:         -10.060
REMARK INTER:                  -9.507
REMARK INTRA:                  -0.553
REMARK UNBOUND:                -0.306
REMARK SMILES CS(=O)(=O)Nc1cccc(NC(=O)c2ccccc2O)c1
REMARK SMILES IDX 6 1 7 2 8 3 9 4 10 5 21 6 5 7 2 9 3 10 4 11 1 12 11 13 12 14
REMARK SMILES IDX 13 15 14 17 15 18 19 19 16 20 18 21 17 22 20 23
REMARK H PARENT 5 8 11 16 20 24
ROOT
ATOM      1  C   UNL     1      50.892  53.933  21.090  1.00  0.00    +0.051 A 
ATOM      2  C   UNL     1      51.646  53.170  21.979  1.00  0.00    +0.027 A 
ATOM      3  C   UNL     1      51.813  51.806  21.746  1.00  0.00    +0.004 A 
ATOM      4  C   UNL     1      51.228  51.204  20.628  1.00  0.00    +0.026 A 
ATOM      5  C   UNL     1      50.470  51.961  19.732  1.00  0.00    +0.043 A 
ATOM      6  C   UNL     1      50.307  53.333  19.972  1.00  0.00    +0.052 A 
ENDROOT
BRANCH   1   7
ATOM      7  N   UNL     1      50.727  55.331  21.342  1.00  0.00    -0.284 N 
ATOM      8  H   UNL     1      49.954  55.758  20.825  1.00  0.00    +0.180 HD
BRANCH   7   9
ATOM      9  S   UNL     1      52.088  56.327  21.160  1.00  0.00    +0.229 S 
ATOM     10  O   UNL     1      52.813  56.446  22.405  1.00  0.00    -0.207 OA
ATOM     11  O   UNL     1      52.729  55.894  19.938  1.00  0.00    -0.207 OA
ATOM     12  C   UNL     1      51.299  57.886  20.836  1.00  0.00    +0.183 C 
ENDBRANCH   7   9
ENDBRANCH   1   7
BRANCH   5  13
ATOM     13  N   UNL     1      49.825  51.423  18.596  1.00  0.00    -0.322 N 
ATOM     14  C   UNL     1      50.417  50.806  17.511  1.00  0.00    +0.259 C 
ATOM     15  O   UNL     1      51.623  50.726  17.283  1.00  0.00    -0.269 OA
ATOM     16  H   UNL     1      48.823  51.561  18.561  1.00  0.00    +0.170 HD
BRANCH  14  17
ATOM     17  C   UNL     1      49.487  50.244  16.488  1.00  0.00    +0.081 A 
ATOM     18  C   UNL     1      48.188  49.831  16.825  1.00  0.00    +0.018 A 
ATOM     19  C   UNL     1      49.923  50.097  15.162  1.00  0.00    +0.128 A 
ATOM     20  C   UNL     1      47.333  49.325  15.841  1.00  0.00    +0.001 A 
ATOM     21  C   UNL     1      49.067  49.599  14.182  1.00  0.00    +0.047 A 
ATOM     22  C   UNL     1      47.769  49.217  14.521  1.00  0.00    +0.004 A 
BRANCH  19  23
ATOM     23  O   UNL     1      51.189  50.422  14.750  1.00  0.00    -0.507 OA
ATOM     24  H   UNL     1      51.572  49.630  14.310  1.00  0.00    +0.293 HD
ENDBRANCH  19  23
ENDBRANCH  14  17
ENDBRANCH   5  13
TORSDOF 5
ENDMDL
