MODEL 1
REMARK VINA RESULT:    -8.540      0.000      0.000
REMARK INTER + INTRA:         -10.558
REMARK INTER:                 -10.038
REMARK INTRA:                  -0.520
REMARK UNBOUND:                -0.520
REMARK SMILES Cc1ccoc1C(=O)NNC(=S)N[C@H]1CCC[C@H](C)[C@H]1C
REMARK SMILES IDX 10 1 11 2 12 3 13 4 9 7 7 8 8 9 6 11 2 12 3 13 4 14 5 15
REMARK SMILES IDX 1 16 14 17 15 18 20 19 16 20 18 21 17 22 21 23 19 24
REMARK H PARENT 10 5 13 6 9 10
ROOT
ATOM      1  N   UNL     1      51.519  53.105  18.497  1.00  0.00    -0.274 N 
ATOM      2  C   UNL     1      50.206  52.764  18.188  1.00  0.00    +0.185 C 
ATOM      3  S   UNL     1      48.935  53.854  18.192  1.00  0.00    -0.039 S 
ATOM      4  N   UNL     1      50.120  51.419  17.873  1.00  0.00    -0.358 N 
ATOM      5  H   UNL     1      52.128  52.367  18.851  1.00  0.00    +0.190 HD
ATOM      6  H   UNL     1      51.007  51.001  17.622  1.00  0.00    +0.163 HD
ENDROOT
BRANCH   1   7
ATOM      7  N   UNL     1      51.807  54.369  19.049  1.00  0.00    -0.261 N 
ATOM      8  C   UNL     1      51.908  54.476  20.427  1.00  0.00    +0.305 C 
ATOM      9  O   UNL     1      51.973  53.476  21.144  1.00  0.00    -0.264 OA
ATOM     10  H   UNL     1      51.544  55.190  18.504  1.00  0.00    +0.191 HD
BRANCH   8  11
ATOM     11  C   UNL     1      51.918  55.839  20.916  1.00  0.00    +0.195 A 
ATOM     12  C   UNL     1      50.890  56.741  21.154  1.00  0.00    +0.001 A 
ATOM     13  C   UNL     1      51.515  57.931  21.625  1.00  0.00    +0.046 A 
ATOM     14  C   UNL     1      52.866  57.683  21.644  1.00  0.00    +0.196 A 
ATOM     15  O   UNL     1      53.122  56.423  21.218  1.00  0.00    -0.459 OA
ATOM     16  C   UNL     1      49.438  56.513  20.956  1.00  0.00    +0.049 C 
ENDBRANCH   8  11
ENDBRANCH   1   7
BRANCH   4  17
ATOM     17  C   UNL     1      48.936  50.702  17.387  1.00  0.00    +0.084 C 
ATOM     18  C   UNL     1      49.206  50.056  16.025  1.00  0.00    +0.025 C 
ATOM     19  C   UNL     1      48.402  49.656  18.409  1.00  0.00    +0.011 C 
ATOM     20  C   UNL     1      47.927  49.492  15.406  1.00  0.00    +0.002 C 
ATOM     21  C   UNL     1      47.473  48.604  17.734  1.00  0.00    -0.009 C 
ATOM     22  C   UNL     1      46.854  49.136  16.436  1.00  0.00    +0.004 C 
ATOM     23  C   UNL     1      49.510  48.928  19.186  1.00  0.00    +0.010 C 
ATOM     24  C   UNL     1      46.370  48.143  18.692  1.00  0.00    +0.008 C 
ENDBRANCH   4  17
TORSDOF 3
ENDMDL
MODEL 2
REMARK VINA RESULT:    -7.849      1.602      2.013
REMARK INTER + INTRA:          -9.746
REMARK INTER:                  -9.267
REMARK INTRA:                  -0.479
REMARK UNBOUND:                -0.520
REMARK SMILES Cc1ccoc1C(=O)NNC(=S)N[C@H]1CCC[C@H](C)[C@H]1C
REMARK SMILES IDX 10 1 11 2 12 3 13 4 9 7 7 8 8 9 6 11 2 12 3 13 4 14 5 15
REMARK SMILES IDX 1 16 14 17 15 18 20 19 16 20 18 21 17 22 21 23 19 24
REMARK H PARENT 10 5 13 6 9 10
ROOT
ATOM      1  N   UNL     1      50.309  52.531  18.027  1.00  0.00    -0.274 N 
ATOM      2  C   UNL     1      49.069  52.201  17.490  1.00  0.00    +0.185 C 
ATOM      3  S   UNL     1      47.849  53.313  17.209  1.00  0.00    -0.039 S 
ATOM      4  N   UNL     1      49.007  50.844  17.221  1.00  0.00    -0.358 N 
ATOM      5  H   UNL     1      50.820  51.799  18.520  1.00  0.00    +0.190 HD
ATOM      6  H   UNL     1      49.913  50.398  17.160  1.00  0.00    +0.163 HD
ENDROOT
BRANCH   1   7
ATOM      7  N   UNL     1      50.522  53.814  18.569  1.00  0.00    -0.261 N 
ATOM      8  C   UNL     1      50.354  53.985  19.935  1.00  0.00    +0.305 C 
ATOM      9  O   UNL     1      50.245  53.020  20.693  1.00  0.00    -0.264 OA
ATOM     10  H   UNL     1      50.397  54.613  17.949  1.00  0.00    +0.191 HD
BRANCH   8  11
ATOM     11  C   UNL     1      50.311  55.370  20.357  1.00  0.00    +0.195 A 
ATOM     12  C   UNL     1      51.310  56.325  20.493  1.00  0.00    +0.001 A 
ATOM     13  C   UNL     1      50.662  57.506  20.953  1.00  0.00    +0.046 A 
ATOM     14  C   UNL     1      49.327  57.203  21.066  1.00  0.00    +0.196 A 
ATOM     15  O   UNL     1      49.102  55.915  20.709  1.00  0.00    -0.459 OA
ATOM     16  C   UNL     1      52.758  56.148  20.219  1.00  0.00    +0.049 C 
ENDBRANCH   8  11
ENDBRANCH   1   7
BRANCH   4  17
ATOM     17  C   UNL     1      47.916  50.128  16.552  1.00  0.00    +0.084 C 
ATOM     18  C   UNL     1      48.463  49.126  15.531  1.00  0.00    +0.025 C 
ATOM     19  C   UNL     1      46.944  49.436  17.552  1.00  0.00    +0.011 C 
ATOM     20  C   UNL     1      47.346  48.530  14.674  1.00  0.00    +0.002 C 
ATOM     21  C   UNL     1      46.094  48.326  16.866  1.00  0.00    -0.009 C 
ATOM     22  C   UNL     1      45.977  48.549  15.353  1.00  0.00    +0.004 C 
ATOM     23  C   UNL     1      47.642  48.848  18.788  1.00  0.00    +0.010 C 
ATOM     24  C   UNL     1      44.700  48.229  17.493  1.00  0.00    +0.008 C 
ENDBRANCH   4  17
TORSDOF 3
ENDMDL
MODEL 3
REMARK VINA RESULT:    -7.523      1.951      2.675
REMARK INTER + INTRA:          -9.363
REMARK INTER:                  -8.884
REMARK INTRA:                  -0.479
REMARK UNBOUND:                -0.520
REMARK SMILES Cc1ccoc1C(=O)NNC(=S)N[C@H]1CCC[C@H](C)[C@H]1C
REMARK SMILES IDX 10 1 11 2 12 3 13 4 9 7 7 8 8 9 6 11 2 12 3 13 4 14 5 15
REMARK SMILES IDX 1 16 14 17 15 18 20 19 16 20 18 21 17 22 21 23 19 24
REMARK H PARENT 10 5 13 6 9 10
ROOT
ATOM      1  N   UNL     1      49.736  53.381  18.864  1.00  0.00    -0.274 N 
ATOM      2  C   UNL     1      49.140  52.938  17.688  1.00  0.00    +0.185 C 
ATOM      3  S   UNL     1      48.006  53.821  16.827  1.00  0.00    -0.039 S 
ATOM      4  N   UNL     1      49.626  51.688  17.344  1.00  0.00    -0.358 N 
ATOM      5  H   UNL     1      50.085  52.675  19.512  1.00  0.00    +0.190 HD
ATOM      6  H   UNL     1      50.504  51.455  17.789  1.00  0.00    +0.163 HD
ENDROOT
BRANCH   1   7
ATOM      7  N   UNL     1      49.244  54.530  19.513  1.00  0.00    -0.261 N 
ATOM      8  C   UNL     1      50.039  55.665  19.532  1.00  0.00    +0.305 C 
ATOM      9  O   UNL     1      51.041  55.758  18.821  1.00  0.00    -0.264 OA
ATOM     10  H   UNL     1      48.556  54.393  20.253  1.00  0.00    +0.191 HD
BRANCH   8  11
ATOM     11  C   UNL     1      49.589  56.689  20.452  1.00  0.00    +0.195 A 
ATOM     12  C   UNL     1      50.147  57.190  21.621  1.00  0.00    +0.001 A 
ATOM     13  C   UNL     1      49.242  58.181  22.094  1.00  0.00    +0.046 A 
ATOM     14  C   UNL     1      48.202  58.223  21.198  1.00  0.00    +0.196 A 
ATOM     15  O   UNL     1      48.400  57.326  20.202  1.00  0.00    -0.459 OA
ATOM     16  C   UNL     1      51.426  56.774  22.249  1.00  0.00    +0.049 C 
ENDBRANCH   8  11
ENDBRANCH   1   7
BRANCH   4  17
ATOM     17  C   UNL     1      49.329  50.935  16.120  1.00  0.00    +0.084 C 
ATOM     18  C   UNL     1      50.559  50.156  15.644  1.00  0.00    +0.025 C 
ATOM     19  C   UNL     1      48.095  49.997  16.272  1.00  0.00    +0.011 C 
ATOM     20  C   UNL     1      50.336  49.542  14.262  1.00  0.00    +0.002 C 
ATOM     21  C   UNL     1      48.067  48.890  15.178  1.00  0.00    -0.009 C 
ATOM     22  C   UNL     1      48.864  49.296  13.933  1.00  0.00    +0.004 C 
ATOM     23  C   UNL     1      47.982  49.343  17.658  1.00  0.00    +0.010 C 
ATOM     24  C   UNL     1      46.629  48.533  14.789  1.00  0.00    +0.008 C 
ENDBRANCH   4  17
TORSDOF 3
ENDMDL
MODEL 4
REMARK VINA RESULT:    -7.381      2.600      3.116
REMARK INTER + INTRA:          -9.196
REMARK INTER:                  -8.769
REMARK INTRA:                  -0.428
REMARK UNBOUND:                -0.520
REMARK SMILES Cc1ccoc1C(=O)NNC(=S)N[C@H]1CCC[C@H](C)[C@H]1C
REMARK SMILES IDX 10 1 11 2 12 3 13 4 9 7 7 8 8 9 6 11 2 12 3 13 4 14 5 15
REMARK SMILES IDX 1 16 14 17 15 18 20 19 16 20 18 21 17 22 21 23 19 24
REMARK H PARENT 10 5 13 6 9 10
ROOT
ATOM      1  N   UNL     1      49.416  53.858  18.096  1.00  0.00    -0.274 N 
ATOM      2  C   UNL     1      48.571  53.124  17.271  1.00  0.00    +0.185 C 
ATOM      3  S   UNL     1      47.503  53.814  16.180  1.00  0.00    -0.039 S 
ATOM      4  N   UNL     1      48.754  51.768  17.479  1.00  0.00    -0.358 N 
ATOM      5  H   UNL     1      49.723  53.422  18.966  1.00  0.00    +0.190 HD
ATOM      6  H   UNL     1      49.631  51.538  17.928  1.00  0.00    +0.163 HD
ENDROOT
BRANCH   1   7
ATOM      7  N   UNL     1      49.255  55.253  18.206  1.00  0.00    -0.261 N 
ATOM      8  C   UNL     1      48.540  55.748  19.286  1.00  0.00    +0.305 C 
ATOM      9  O   UNL     1      48.245  55.030  20.242  1.00  0.00    -0.264 OA
ATOM     10  H   UNL     1      49.302  55.800  17.348  1.00  0.00    +0.191 HD
BRANCH   8  11
ATOM     11  C   UNL     1      48.183  57.146  19.168  1.00  0.00    +0.195 A 
ATOM     12  C   UNL     1      48.192  58.183  20.093  1.00  0.00    +0.001 A 
ATOM     13  C   UNL     1      47.727  59.333  19.396  1.00  0.00    +0.046 A 
ATOM     14  C   UNL     1      47.466  58.934  18.108  1.00  0.00    +0.196 A 
ATOM     15  O   UNL     1      47.737  57.615  17.958  1.00  0.00    -0.459 OA
ATOM     16  C   UNL     1      48.601  58.105  21.517  1.00  0.00    +0.049 C 
ENDBRANCH   8  11
ENDBRANCH   1   7
BRANCH   4  17
ATOM     17  C   UNL     1      48.135  50.670  16.728  1.00  0.00    +0.084 C 
ATOM     18  C   UNL     1      49.029  50.227  15.566  1.00  0.00    +0.025 C 
ATOM     19  C   UNL     1      47.749  49.462  17.632  1.00  0.00    +0.011 C 
ATOM     20  C   UNL     1      48.310  49.239  14.648  1.00  0.00    +0.002 C 
ATOM     21  C   UNL     1      47.537  48.159  16.804  1.00  0.00    -0.009 C 
ATOM     22  C   UNL     1      47.192  48.461  15.342  1.00  0.00    +0.004 C 
ATOM     23  C   UNL     1      48.755  49.187  18.760  1.00  0.00    +0.010 C 
ATOM     24  C   UNL     1      46.453  47.276  17.430  1.00  0.00    +0.008 C 
ENDBRANCH   4  17
TORSDOF 3
ENDMDL
MODEL 5
REMARK VINA RESULT:    -7.283      1.423      2.059
REMARK INTER + INTRA:          -9.081
REMARK INTER:                  -8.679
REMARK INTRA:                  -0.402
REMARK UNBOUND:                -0.520
REMARK SMILES Cc1ccoc1C(=O)NNC(=S)N[C@H]1CCC[C@H](C)[C@H]1C
REMARK SMILES IDX 10 1 11 2 12 3 13 4 9 7 7 8 8 9 6 11 2 12 3 13 4 14 5 15
REMARK SMILES IDX 1 16 14 17 15 18 20 19 16 20 18 21 17 22 21 23 19 24
REMARK H PARENT 10 5 13 6 9 10
ROOT
ATOM      1  N   UNL     1      49.393  53.562  18.983  1.00  0.00    -0.274 N 
ATOM      2  C   UNL     1      49.786  52.372  18.378  1.00  0.00    +0.185 C 
ATOM      3  S   UNL     1      51.384  51.910  18.181  1.00  0.00    -0.039 S 
ATOM      4  N   UNL     1      48.677  51.643  17.985  1.00  0.00    -0.358 N 
ATOM      5  H   UNL     1      48.486  53.947  18.722  1.00  0.00    +0.190 HD
ATOM      6  H   UNL     1      47.822  51.917  18.452  1.00  0.00    +0.163 HD
ENDROOT
BRANCH   1   7
ATOM      7  N   UNL     1      50.351  54.554  19.272  1.00  0.00    -0.261 N 
ATOM      8  C   UNL     1      50.789  54.682  20.581  1.00  0.00    +0.305 C 
ATOM      9  O   UNL     1      50.534  53.824  21.428  1.00  0.00    -0.264 OA
ATOM     10  H   UNL     1      50.390  55.363  18.653  1.00  0.00    +0.191 HD
BRANCH   8  11
ATOM     11  C   UNL     1      51.541  55.892  20.838  1.00  0.00    +0.195 A 
ATOM     12  C   UNL     1      51.159  57.124  21.354  1.00  0.00    +0.001 A 
ATOM     13  C   UNL     1      52.335  57.925  21.366  1.00  0.00    +0.046 A 
ATOM     14  C   UNL     1      53.347  57.144  20.864  1.00  0.00    +0.196 A 
ATOM     15  O   UNL     1      52.880  55.914  20.541  1.00  0.00    -0.459 OA
ATOM     16  C   UNL     1      49.801  57.524  21.799  1.00  0.00    +0.049 C 
ENDBRANCH   8  11
ENDBRANCH   1   7
BRANCH   4  17
ATOM     17  C   UNL     1      48.669  50.291  17.415  1.00  0.00    +0.084 C 
ATOM     18  C   UNL     1      48.856  49.235  18.508  1.00  0.00    +0.025 C 
ATOM     19  C   UNL     1      47.396  50.001  16.567  1.00  0.00    +0.011 C 
ATOM     20  C   UNL     1      49.066  47.842  17.914  1.00  0.00    +0.002 C 
ATOM     21  C   UNL     1      47.167  48.474  16.363  1.00  0.00    -0.009 C 
ATOM     22  C   UNL     1      48.466  47.675  16.518  1.00  0.00    +0.004 C 
ATOM     23  C   UNL     1      46.116  50.634  17.134  1.00  0.00    +0.010 C 
ATOM     24  C   UNL     1      46.531  48.186  15.000  1.00  0.00    +0.008 C 
ENDBRANCH   4  17
TORSDOF 3
ENDMDL
