MODEL 1
REMARK VINA RESULT:    -8.554      0.000      0.000
REMARK INTER + INTRA:         -13.520
REMARK INTER:                 -12.554
REMARK INTRA:                  -0.965
REMARK UNBOUND:                -0.965
REMARK SMILES CC(C)CNC(=O)Nc1ccc(NC(=O)N2CCC[C@H](C(=O)NC[C@H]3CCCO3)C2)cc1
REMARK SMILES IDX 9 1 10 2 11 3 12 4 31 5 32 6 8 7 5 8 6 9 7 10 4 13 2 14 1 15
REMARK SMILES IDX 3 16 13 17 14 18 15 19 16 21 17 22 30 23 18 24 20 25 19 26
REMARK SMILES IDX 21 27 22 28 23 29 24 31 25 32 26 33 29 34 27 35 28 36
REMARK H PARENT 5 11 8 12 13 20 23 30
ROOT
ATOM      1  C   UNL     1      47.431  58.691  19.410  1.00  0.00    +0.043 A 
ATOM      2  C   UNL     1      47.874  58.063  20.578  1.00  0.00    +0.028 A 
ATOM      3  C   UNL     1      48.538  56.832  20.520  1.00  0.00    +0.028 A 
ATOM      4  C   UNL     1      48.769  56.206  19.291  1.00  0.00    +0.043 A 
ATOM      5  C   UNL     1      48.342  56.841  18.126  1.00  0.00    +0.028 A 
ATOM      6  C   UNL     1      47.677  58.074  18.185  1.00  0.00    +0.028 A 
ENDROOT
BRANCH   1   7
ATOM      7  N   UNL     1      46.780  59.932  19.548  1.00  0.00    -0.308 N 
ATOM      8  N   UNL     1      46.288  62.139  19.409  1.00  0.00    -0.338 N 
ATOM      9  C   UNL     1      47.101  61.124  18.934  1.00  0.00    +0.319 C 
ATOM     10  O   UNL     1      47.958  61.308  18.082  1.00  0.00    -0.249 OA
ATOM     11  H   UNL     1      46.083  62.050  20.393  1.00  0.00    +0.165 HD
ATOM     12  H   UNL     1      45.887  59.927  20.017  1.00  0.00    +0.171 HD
BRANCH   8  13
ATOM     13  C   UNL     1      46.497  63.494  18.929  1.00  0.00    +0.120 C 
BRANCH  13  14
ATOM     14  C   UNL     1      45.721  63.817  17.644  1.00  0.00    +0.002 C 
ATOM     15  C   UNL     1      46.599  64.495  16.592  1.00  0.00    +0.009 C 
ATOM     16  C   UNL     1      44.477  64.660  17.929  1.00  0.00    +0.009 C 
ENDBRANCH  13  14
ENDBRANCH   8  13
ENDBRANCH   1   7
BRANCH   4  17
ATOM     17  N   UNL     1      49.451  54.971  19.310  1.00  0.00    -0.308 N 
ATOM     18  C   UNL     1      50.802  54.759  19.144  1.00  0.00    +0.321 C 
ATOM     19  O   UNL     1      51.609  55.617  18.798  1.00  0.00    -0.248 OA
ATOM     20  H   UNL     1      48.880  54.150  19.199  1.00  0.00    +0.171 HD
BRANCH  18  21
ATOM     21  N   UNL     1      51.193  53.431  19.346  1.00  0.00    -0.324 N 
ATOM     22  C   UNL     1      52.263  52.767  18.608  1.00  0.00    +0.121 C 
ATOM     23  C   UNL     1      50.183  52.528  19.909  1.00  0.00    +0.134 C 
ATOM     24  C   UNL     1      53.062  51.843  19.526  1.00  0.00    +0.022 C 
ATOM     25  C   UNL     1      50.762  51.199  20.425  1.00  0.00    +0.098 C 
ATOM     26  C   UNL     1      52.259  51.332  20.729  1.00  0.00    +0.017 C 
BRANCH  25  27
ATOM     27  C   UNL     1      50.496  50.034  19.473  1.00  0.00    +0.224 C 
ATOM     28  O   UNL     1      51.014  48.928  19.583  1.00  0.00    -0.275 OA
ATOM     29  N   UNL     1      49.594  50.334  18.472  1.00  0.00    -0.353 N 
ATOM     30  H   UNL     1      49.442  51.312  18.255  1.00  0.00    +0.163 HD
BRANCH  29  31
ATOM     31  C   UNL     1      49.365  49.411  17.370  1.00  0.00    +0.147 C 
BRANCH  31  32
ATOM     32  C   UNL     1      48.307  48.360  17.737  1.00  0.00    +0.137 C 
ATOM     33  C   UNL     1      47.128  48.954  18.497  1.00  0.00    +0.036 C 
ATOM     34  O   UNL     1      47.770  47.810  16.509  1.00  0.00    -0.376 OA
ATOM     35  C   UNL     1      46.138  49.259  17.401  1.00  0.00    +0.031 C 
ATOM     36  C   UNL     1      46.369  48.110  16.447  1.00  0.00    +0.160 C 
ENDBRANCH  31  32
ENDBRANCH  29  31
ENDBRANCH  25  27
ENDBRANCH  18  21
ENDBRANCH   4  17
TORSDOF 8
ENDMDL
MODEL 2
REMARK VINA RESULT:    -8.390      2.269     12.151
REMARK INTER + INTRA:         -13.279
REMARK INTER:                 -12.301
REMARK INTRA:                  -0.978
REMARK UNBOUND:                -0.965
REMARK SMILES CC(C)CNC(=O)Nc1ccc(NC(=O)N2CCC[C@H](C(=O)NC[C@H]3CCCO3)C2)cc1
REMARK SMILES IDX 9 1 10 2 11 3 12 4 31 5 32 6 8 7 5 8 6 9 7 10 4 13 2 14 1 15
REMARK SMILES IDX 3 16 13 17 14 18 15 19 16 21 17 22 30 23 18 24 20 25 19 26
REMARK SMILES IDX 21 27 22 28 23 29 24 31 25 32 26 33 29 34 27 35 28 36
REMARK H PARENT 5 11 8 12 13 20 23 30
ROOT
ATOM      1  C   UNL     1      49.684  55.119  20.459  1.00  0.00    +0.043 A 
ATOM      2  C   UNL     1      48.417  55.241  19.879  1.00  0.00    +0.028 A 
ATOM      3  C   UNL     1      47.857  56.502  19.645  1.00  0.00    +0.028 A 
ATOM      4  C   UNL     1      48.552  57.665  19.990  1.00  0.00    +0.043 A 
ATOM      5  C   UNL     1      49.822  57.543  20.553  1.00  0.00    +0.028 A 
ATOM      6  C   UNL     1      50.383  56.280  20.787  1.00  0.00    +0.028 A 
ENDROOT
BRANCH   1   7
ATOM      7  N   UNL     1      50.186  53.818  20.654  1.00  0.00    -0.308 N 
ATOM      8  N   UNL     1      50.983  51.732  20.273  1.00  0.00    -0.338 N 
ATOM      9  C   UNL     1      50.689  52.959  19.701  1.00  0.00    +0.319 C 
ATOM     10  O   UNL     1      50.880  53.199  18.517  1.00  0.00    -0.249 OA
ATOM     11  H   UNL     1      50.318  51.460  20.981  1.00  0.00    +0.165 HD
ATOM     12  H   UNL     1      50.348  53.532  21.608  1.00  0.00    +0.171 HD
BRANCH   8  13
ATOM     13  C   UNL     1      51.477  50.660  19.427  1.00  0.00    +0.120 C 
BRANCH  13  14
ATOM     14  C   UNL     1      50.645  49.374  19.515  1.00  0.00    +0.002 C 
ATOM     15  C   UNL     1      49.289  49.512  18.822  1.00  0.00    +0.009 C 
ATOM     16  C   UNL     1      50.463  48.913  20.962  1.00  0.00    +0.009 C 
ENDBRANCH  13  14
ENDBRANCH   8  13
ENDBRANCH   1   7
BRANCH   4  17
ATOM     17  N   UNL     1      47.928  58.900  19.717  1.00  0.00    -0.308 N 
ATOM     18  C   UNL     1      47.397  59.323  18.519  1.00  0.00    +0.321 C 
ATOM     19  O   UNL     1      47.527  58.735  17.449  1.00  0.00    -0.248 OA
ATOM     20  H   UNL     1      48.088  59.634  20.388  1.00  0.00    +0.171 HD
BRANCH  18  21
ATOM     21  N   UNL     1      46.728  60.548  18.599  1.00  0.00    -0.324 N 
ATOM     22  C   UNL     1      45.275  60.694  18.585  1.00  0.00    +0.121 C 
ATOM     23  C   UNL     1      47.468  61.732  18.150  1.00  0.00    +0.134 C 
ATOM     24  C   UNL     1      44.831  61.795  19.546  1.00  0.00    +0.022 C 
ATOM     25  C   UNL     1      46.825  63.062  18.580  1.00  0.00    +0.098 C 
ATOM     26  C   UNL     1      45.904  62.864  19.790  1.00  0.00    +0.017 C 
BRANCH  25  27
ATOM     27  C   UNL     1      46.086  63.754  17.435  1.00  0.00    +0.224 C 
ATOM     28  O   UNL     1      45.806  63.209  16.373  1.00  0.00    -0.275 OA
ATOM     29  N   UNL     1      45.741  65.061  17.712  1.00  0.00    -0.353 N 
ATOM     30  H   UNL     1      46.248  65.535  18.450  1.00  0.00    +0.163 HD
BRANCH  29  31
ATOM     31  C   UNL     1      45.204  65.929  16.674  1.00  0.00    +0.147 C 
BRANCH  31  32
ATOM     32  C   UNL     1      43.749  66.319  16.974  1.00  0.00    +0.137 C 
ATOM     33  C   UNL     1      42.755  65.640  16.041  1.00  0.00    +0.036 C 
ATOM     34  O   UNL     1      43.427  65.873  18.314  1.00  0.00    -0.376 OA
ATOM     35  C   UNL     1      42.359  64.404  16.811  1.00  0.00    +0.031 C 
ATOM     36  C   UNL     1      42.367  64.911  18.234  1.00  0.00    +0.160 C 
ENDBRANCH  31  32
ENDBRANCH  29  31
ENDBRANCH  25  27
ENDBRANCH  18  21
ENDBRANCH   4  17
TORSDOF 8
ENDMDL
MODEL 3
REMARK VINA RESULT:    -8.382      2.948     11.950
REMARK INTER + INTRA:         -13.267
REMARK INTER:                 -12.243
REMARK INTRA:                  -1.024
REMARK UNBOUND:                -0.965
REMARK SMILES CC(C)CNC(=O)Nc1ccc(NC(=O)N2CCC[C@H](C(=O)NC[C@H]3CCCO3)C2)cc1
REMARK SMILES IDX 9 1 10 2 11 3 12 4 31 5 32 6 8 7 5 8 6 9 7 10 4 13 2 14 1 15
REMARK SMILES IDX 3 16 13 17 14 18 15 19 16 21 17 22 30 23 18 24 20 25 19 26
REMARK SMILES IDX 21 27 22 28 23 29 24 31 25 32 26 33 29 34 27 35 28 36
REMARK H PARENT 5 11 8 12 13 20 23 30
ROOT
ATOM      1  C   UNL     1      49.639  56.000  20.884  1.00  0.00    +0.043 A 
ATOM      2  C   UNL     1      48.679  55.948  19.868  1.00  0.00    +0.028 A 
ATOM      3  C   UNL     1      47.853  57.048  19.609  1.00  0.00    +0.028 A 
ATOM      4  C   UNL     1      47.970  58.220  20.363  1.00  0.00    +0.043 A 
ATOM      5  C   UNL     1      48.938  58.277  21.365  1.00  0.00    +0.028 A 
ATOM      6  C   UNL     1      49.766  57.175  21.624  1.00  0.00    +0.028 A 
ENDROOT
BRANCH   1   7
ATOM      7  N   UNL     1      50.439  54.858  21.079  1.00  0.00    -0.308 N 
ATOM      8  N   UNL     1      51.789  53.078  20.703  1.00  0.00    -0.338 N 
ATOM      9  C   UNL     1      51.247  54.230  20.156  1.00  0.00    +0.319 C 
ATOM     10  O   UNL     1      51.493  54.599  19.017  1.00  0.00    -0.249 OA
ATOM     11  H   UNL     1      51.147  52.594  21.311  1.00  0.00    +0.165 HD
ATOM     12  H   UNL     1      50.569  54.552  22.031  1.00  0.00    +0.171 HD
BRANCH   8  13
ATOM     13  C   UNL     1      52.633  52.234  19.875  1.00  0.00    +0.120 C 
BRANCH  13  14
ATOM     14  C   UNL     1      51.945  50.944  19.410  1.00  0.00    +0.002 C 
ATOM     15  C   UNL     1      52.763  49.696  19.746  1.00  0.00    +0.009 C 
ATOM     16  C   UNL     1      51.614  50.982  17.918  1.00  0.00    +0.009 C 
ENDBRANCH  13  14
ENDBRANCH   8  13
ENDBRANCH   1   7
BRANCH   4  17
ATOM     17  N   UNL     1      47.109  59.289  20.039  1.00  0.00    -0.308 N 
ATOM     18  C   UNL     1      47.225  60.167  18.984  1.00  0.00    +0.321 C 
ATOM     19  O   UNL     1      48.199  60.243  18.240  1.00  0.00    -0.248 OA
ATOM     20  H   UNL     1      46.485  59.591  20.769  1.00  0.00    +0.171 HD
BRANCH  18  21
ATOM     21  N   UNL     1      46.140  61.039  18.854  1.00  0.00    -0.324 N 
ATOM     22  C   UNL     1      45.101  60.913  17.836  1.00  0.00    +0.121 C 
ATOM     23  C   UNL     1      46.321  62.396  19.381  1.00  0.00    +0.134 C 
ATOM     24  C   UNL     1      43.732  61.272  18.412  1.00  0.00    +0.022 C 
ATOM     25  C   UNL     1      45.006  63.183  19.524  1.00  0.00    +0.098 C 
ATOM     26  C   UNL     1      43.803  62.236  19.603  1.00  0.00    +0.017 C 
BRANCH  25  27
ATOM     27  C   UNL     1      44.820  64.218  18.416  1.00  0.00    +0.224 C 
ATOM     28  O   UNL     1      43.819  64.917  18.293  1.00  0.00    -0.275 OA
ATOM     29  N   UNL     1      45.899  64.313  17.561  1.00  0.00    -0.353 N 
ATOM     30  H   UNL     1      46.540  63.529  17.525  1.00  0.00    +0.163 HD
BRANCH  29  31
ATOM     31  C   UNL     1      45.822  65.106  16.343  1.00  0.00    +0.147 C 
BRANCH  31  32
ATOM     32  C   UNL     1      45.704  64.208  15.103  1.00  0.00    +0.137 C 
ATOM     33  C   UNL     1      44.258  63.910  14.728  1.00  0.00    +0.036 C 
ATOM     34  O   UNL     1      46.285  64.911  13.977  1.00  0.00    -0.376 OA
ATOM     35  C   UNL     1      43.943  64.986  13.717  1.00  0.00    +0.031 C 
ATOM     36  C   UNL     1      45.263  65.127  12.995  1.00  0.00    +0.160 C 
ENDBRANCH  31  32
ENDBRANCH  29  31
ENDBRANCH  25  27
ENDBRANCH  18  21
ENDBRANCH   4  17
TORSDOF 8
ENDMDL
MODEL 4
REMARK VINA RESULT:    -7.708      3.385     12.313
REMARK INTER + INTRA:         -12.278
REMARK INTER:                 -11.351
REMARK INTRA:                  -0.927
REMARK UNBOUND:                -0.965
REMARK SMILES CC(C)CNC(=O)Nc1ccc(NC(=O)N2CCC[C@H](C(=O)NC[C@H]3CCCO3)C2)cc1
REMARK SMILES IDX 9 1 10 2 11 3 12 4 31 5 32 6 8 7 5 8 6 9 7 10 4 13 2 14 1 15
REMARK SMILES IDX 3 16 13 17 14 18 15 19 16 21 17 22 30 23 18 24 20 25 19 26
REMARK SMILES IDX 21 27 22 28 23 29 24 31 25 32 26 33 29 34 27 35 28 36
REMARK H PARENT 5 11 8 12 13 20 23 30
ROOT
ATOM      1  C   UNL     1      48.026  57.040  19.390  1.00  0.00    +0.043 A 
ATOM      2  C   UNL     1      47.964  57.377  18.033  1.00  0.00    +0.028 A 
ATOM      3  C   UNL     1      47.634  58.677  17.635  1.00  0.00    +0.028 A 
ATOM      4  C   UNL     1      47.359  59.666  18.586  1.00  0.00    +0.043 A 
ATOM      5  C   UNL     1      47.438  59.333  19.938  1.00  0.00    +0.028 A 
ATOM      6  C   UNL     1      47.769  58.030  20.336  1.00  0.00    +0.028 A 
ENDROOT
BRANCH   1   7
ATOM      7  N   UNL     1      48.374  55.715  19.713  1.00  0.00    -0.308 N 
ATOM      8  N   UNL     1      49.526  53.775  19.925  1.00  0.00    -0.338 N 
ATOM      9  C   UNL     1      49.614  55.121  19.611  1.00  0.00    +0.319 C 
ATOM     10  O   UNL     1      50.668  55.661  19.306  1.00  0.00    -0.249 OA
ATOM     11  H   UNL     1      48.670  53.352  19.598  1.00  0.00    +0.165 HD
ATOM     12  H   UNL     1      47.691  55.178  20.225  1.00  0.00    +0.171 HD
BRANCH   8  13
ATOM     13  C   UNL     1      50.716  52.949  19.828  1.00  0.00    +0.120 C 
BRANCH  13  14
ATOM     14  C   UNL     1      51.114  52.286  21.154  1.00  0.00    +0.002 C 
ATOM     15  C   UNL     1      51.540  53.309  22.208  1.00  0.00    +0.009 C 
ATOM     16  C   UNL     1      52.205  51.233  20.958  1.00  0.00    +0.009 C 
ENDBRANCH  13  14
ENDBRANCH   8  13
ENDBRANCH   1   7
BRANCH   4  17
ATOM     17  N   UNL     1      47.042  60.954  18.110  1.00  0.00    -0.308 N 
ATOM     18  C   UNL     1      45.987  61.312  17.300  1.00  0.00    +0.321 C 
ATOM     19  O   UNL     1      45.236  60.520  16.738  1.00  0.00    -0.248 OA
ATOM     20  H   UNL     1      47.777  61.640  18.169  1.00  0.00    +0.171 HD
BRANCH  18  21
ATOM     21  N   UNL     1      45.865  62.691  17.107  1.00  0.00    -0.324 N 
ATOM     22  C   UNL     1      46.263  63.697  18.088  1.00  0.00    +0.121 C 
ATOM     23  C   UNL     1      44.840  63.134  16.156  1.00  0.00    +0.134 C 
ATOM     24  C   UNL     1      46.894  64.906  17.400  1.00  0.00    +0.022 C 
ATOM     25  C   UNL     1      44.986  64.605  15.731  1.00  0.00    +0.098 C 
ATOM     26  C   UNL     1      46.419  65.104  15.954  1.00  0.00    +0.017 C 
BRANCH  25  27
ATOM     27  C   UNL     1      43.973  65.518  16.420  1.00  0.00    +0.224 C 
ATOM     28  O   UNL     1      44.143  66.720  16.596  1.00  0.00    -0.275 OA
ATOM     29  N   UNL     1      42.825  64.866  16.820  1.00  0.00    -0.353 N 
ATOM     30  H   UNL     1      42.869  63.858  16.924  1.00  0.00    +0.163 HD
BRANCH  29  31
ATOM     31  C   UNL     1      41.837  65.532  17.656  1.00  0.00    +0.147 C 
BRANCH  31  32
ATOM     32  C   UNL     1      41.844  64.964  19.083  1.00  0.00    +0.137 C 
ATOM     33  C   UNL     1      40.654  64.055  19.360  1.00  0.00    +0.036 C 
ATOM     34  O   UNL     1      43.031  64.147  19.240  1.00  0.00    -0.376 OA
ATOM     35  C   UNL     1      41.194  62.683  19.039  1.00  0.00    +0.031 C 
ATOM     36  C   UNL     1      42.626  62.798  19.507  1.00  0.00    +0.160 C 
ENDBRANCH  31  32
ENDBRANCH  29  31
ENDBRANCH  25  27
ENDBRANCH  18  21
ENDBRANCH   4  17
TORSDOF 8
ENDMDL
MODEL 5
REMARK VINA RESULT:    -7.680      2.551     11.890
REMARK INTER + INTRA:         -12.238
REMARK INTER:                 -11.962
REMARK INTRA:                  -0.275
REMARK UNBOUND:                -0.965
REMARK SMILES CC(C)CNC(=O)Nc1ccc(NC(=O)N2CCC[C@H](C(=O)NC[C@H]3CCCO3)C2)cc1
REMARK SMILES IDX 9 1 10 2 11 3 12 4 31 5 32 6 8 7 5 8 6 9 7 10 4 13 2 14 1 15
REMARK SMILES IDX 3 16 13 17 14 18 15 19 16 21 17 22 30 23 18 24 20 25 19 26
REMARK SMILES IDX 21 27 22 28 23 29 24 31 25 32 26 33 29 34 27 35 28 36
REMARK H PARENT 5 11 8 12 13 20 23 30
ROOT
ATOM      1  C   UNL     1      48.957  55.034  18.929  1.00  0.00    +0.043 A 
ATOM      2  C   UNL     1      48.805  55.744  17.733  1.00  0.00    +0.028 A 
ATOM      3  C   UNL     1      48.278  57.040  17.734  1.00  0.00    +0.028 A 
ATOM      4  C   UNL     1      47.893  57.652  18.931  1.00  0.00    +0.043 A 
ATOM      5  C   UNL     1      48.062  56.951  20.124  1.00  0.00    +0.028 A 
ATOM      6  C   UNL     1      48.589  55.652  20.123  1.00  0.00    +0.028 A 
ENDROOT
BRANCH   1   7
ATOM      7  N   UNL     1      49.503  53.739  18.849  1.00  0.00    -0.308 N 
ATOM      8  N   UNL     1      49.835  51.567  18.299  1.00  0.00    -0.338 N 
ATOM      9  C   UNL     1      49.134  52.722  17.996  1.00  0.00    +0.319 C 
ATOM     10  O   UNL     1      48.323  52.782  17.082  1.00  0.00    -0.249 OA
ATOM     11  H   UNL     1      49.981  51.445  19.290  1.00  0.00    +0.165 HD
ATOM     12  H   UNL     1      50.361  53.575  19.354  1.00  0.00    +0.171 HD
BRANCH   8  13
ATOM     13  C   UNL     1      49.557  50.355  17.549  1.00  0.00    +0.120 C 
BRANCH  13  14
ATOM     14  C   UNL     1      49.307  49.127  18.435  1.00  0.00    +0.002 C 
ATOM     15  C   UNL     1      47.820  48.902  18.709  1.00  0.00    +0.009 C 
ATOM     16  C   UNL     1      50.089  49.205  19.747  1.00  0.00    +0.009 C 
ENDBRANCH  13  14
ENDBRANCH   8  13
ENDBRANCH   1   7
BRANCH   4  17
ATOM     17  N   UNL     1      47.379  58.963  18.854  1.00  0.00    -0.308 N 
ATOM     18  C   UNL     1      46.622  59.507  17.840  1.00  0.00    +0.321 C 
ATOM     19  O   UNL     1      46.404  58.965  16.761  1.00  0.00    -0.248 OA
ATOM     20  H   UNL     1      47.793  59.637  19.477  1.00  0.00    +0.171 HD
BRANCH  18  21
ATOM     21  N   UNL     1      46.152  60.794  18.116  1.00  0.00    -0.324 N 
ATOM     22  C   UNL     1      44.746  61.186  18.064  1.00  0.00    +0.121 C 
ATOM     23  C   UNL     1      47.103  61.895  17.927  1.00  0.00    +0.134 C 
ATOM     24  C   UNL     1      44.413  62.162  19.192  1.00  0.00    +0.022 C 
ATOM     25  C   UNL     1      46.650  63.219  18.567  1.00  0.00    +0.098 C 
ATOM     26  C   UNL     1      45.622  62.972  19.677  1.00  0.00    +0.017 C 
BRANCH  25  27
ATOM     27  C   UNL     1      46.118  64.216  17.538  1.00  0.00    +0.224 C 
ATOM     28  O   UNL     1      45.406  65.175  17.818  1.00  0.00    -0.275 OA
ATOM     29  N   UNL     1      46.530  63.951  16.248  1.00  0.00    -0.353 N 
ATOM     30  H   UNL     1      46.848  63.011  16.041  1.00  0.00    +0.163 HD
BRANCH  29  31
ATOM     31  C   UNL     1      45.972  64.679  15.119  1.00  0.00    +0.147 C 
BRANCH  31  32
ATOM     32  C   UNL     1      44.592  64.127  14.730  1.00  0.00    +0.137 C 
ATOM     33  C   UNL     1      43.873  65.005  13.714  1.00  0.00    +0.036 C 
ATOM     34  O   UNL     1      44.781  62.837  14.100  1.00  0.00    -0.376 OA
ATOM     35  C   UNL     1      44.259  64.380  12.396  1.00  0.00    +0.031 C 
ATOM     36  C   UNL     1      44.301  62.912  12.751  1.00  0.00    +0.160 C 
ENDBRANCH  31  32
ENDBRANCH  29  31
ENDBRANCH  25  27
ENDBRANCH  18  21
ENDBRANCH   4  17
TORSDOF 8
ENDMDL
