MODEL 1
REMARK VINA RESULT:    -6.831      0.000      0.000
REMARK INTER + INTRA:          -9.264
REMARK INTER:                  -8.827
REMARK INTRA:                  -0.436
REMARK UNBOUND:                -0.436
REMARK SMILES CCCOC(=O)c1ccc(NC(N)=S)cc1
REMARK SMILES IDX 5 1 6 2 4 3 3 4 2 5 1 6 7 7 8 8 16 9 9 10 15 11 10 12 11 13
REMARK SMILES IDX 12 14 14 15 13 16
REMARK H PARENT 11 17 13 18 13 19
ROOT
ATOM      1  C   UNL     1      52.017  55.812  20.880  1.00  0.00    +0.338 C 
ATOM      2  O   UNL     1      52.661  56.481  21.671  1.00  0.00    -0.246 OA
ENDROOT
BRANCH   1   3
ATOM      3  O   UNL     1      51.215  56.292  19.897  1.00  0.00    -0.462 OA
BRANCH   3   4
ATOM      4  C   UNL     1      50.344  57.369  20.273  1.00  0.00    +0.233 C 
BRANCH   4   5
ATOM      5  C   UNL     1      49.078  56.845  20.947  1.00  0.00    +0.038 C 
ATOM      6  C   UNL     1      47.959  57.876  20.960  1.00  0.00    +0.007 C 
ENDBRANCH   4   5
ENDBRANCH   3   4
ENDBRANCH   1   3
BRANCH   1   7
ATOM      7  C   UNL     1      52.017  54.323  20.870  1.00  0.00    +0.060 A 
ATOM      8  C   UNL     1      51.630  53.562  21.976  1.00  0.00    +0.018 A 
ATOM      9  C   UNL     1      52.410  53.666  19.700  1.00  0.00    +0.018 A 
ATOM     10  C   UNL     1      51.646  52.163  21.908  1.00  0.00    +0.027 A 
ATOM     11  C   UNL     1      52.426  52.267  19.636  1.00  0.00    +0.027 A 
ATOM     12  C   UNL     1      52.062  51.500  20.743  1.00  0.00    +0.040 A 
BRANCH  12  13
ATOM     13  N   UNL     1      52.024  50.090  20.769  1.00  0.00    -0.333 N 
ATOM     14  C   UNL     1      51.124  49.189  20.252  1.00  0.00    +0.168 C 
ATOM     15  S   UNL     1      49.878  49.390  19.174  1.00  0.00    -0.041 S 
ATOM     16  N   UNL     1      51.381  47.920  20.699  1.00  0.00    -0.376 N 
ATOM     17  H   UNL     1      52.876  49.646  21.088  1.00  0.00    +0.169 HD
ATOM     18  H   UNL     1      51.735  47.807  21.640  1.00  0.00    +0.159 HD
ATOM     19  H   UNL     1      50.694  47.225  20.424  1.00  0.00    +0.159 HD
ENDBRANCH  12  13
ENDBRANCH   1   7
TORSDOF 5
ENDMDL
MODEL 2
REMARK VINA RESULT:    -6.770      1.035      1.626
REMARK INTER + INTRA:          -9.185
REMARK INTER:                  -8.773
REMARK INTRA:                  -0.412
REMARK UNBOUND:                -0.436
REMARK SMILES CCCOC(=O)c1ccc(NC(N)=S)cc1
REMARK SMILES IDX 5 1 6 2 4 3 3 4 2 5 1 6 7 7 8 8 16 9 9 10 15 11 10 12 11 13
REMARK SMILES IDX 12 14 14 15 13 16
REMARK H PARENT 11 17 13 18 13 19
ROOT
ATOM      1  C   UNL     1      51.418  56.340  20.969  1.00  0.00    +0.338 C 
ATOM      2  O   UNL     1      52.029  57.253  20.438  1.00  0.00    -0.246 OA
ENDROOT
BRANCH   1   3
ATOM      3  O   UNL     1      50.368  56.470  21.818  1.00  0.00    -0.462 OA
BRANCH   3   4
ATOM      4  C   UNL     1      49.492  57.578  21.562  1.00  0.00    +0.233 C 
BRANCH   4   5
ATOM      5  C   UNL     1      48.341  57.170  20.646  1.00  0.00    +0.038 C 
ATOM      6  C   UNL     1      47.398  58.328  20.351  1.00  0.00    +0.007 C 
ENDBRANCH   4   5
ENDBRANCH   3   4
ENDBRANCH   1   3
BRANCH   1   7
ATOM      7  C   UNL     1      51.739  54.902  20.755  1.00  0.00    +0.060 A 
ATOM      8  C   UNL     1      52.288  54.421  19.563  1.00  0.00    +0.018 A 
ATOM      9  C   UNL     1      51.492  54.004  21.798  1.00  0.00    +0.018 A 
ATOM     10  C   UNL     1      52.575  53.057  19.421  1.00  0.00    +0.027 A 
ATOM     11  C   UNL     1      51.778  52.640  21.650  1.00  0.00    +0.027 A 
ATOM     12  C   UNL     1      52.305  52.150  20.456  1.00  0.00    +0.040 A 
BRANCH  12  13
ATOM     13  N   UNL     1      52.646  50.801  20.220  1.00  0.00    -0.333 N 
ATOM     14  C   UNL     1      51.873  49.690  19.979  1.00  0.00    +0.168 C 
ATOM     15  S   UNL     1      50.262  49.543  19.608  1.00  0.00    -0.041 S 
ATOM     16  N   UNL     1      52.625  48.546  20.015  1.00  0.00    -0.376 N 
ATOM     17  H   UNL     1      53.629  50.633  20.047  1.00  0.00    +0.169 HD
ATOM     18  H   UNL     1      53.396  48.500  20.668  1.00  0.00    +0.159 HD
ATOM     19  H   UNL     1      52.094  47.685  19.934  1.00  0.00    +0.159 HD
ENDBRANCH  12  13
ENDBRANCH   1   7
TORSDOF 5
ENDMDL
MODEL 3
REMARK VINA RESULT:    -6.572      1.631      2.766
REMARK INTER + INTRA:          -8.929
REMARK INTER:                  -8.352
REMARK INTRA:                  -0.576
REMARK UNBOUND:                -0.436
REMARK SMILES CCCOC(=O)c1ccc(NC(N)=S)cc1
REMARK SMILES IDX 5 1 6 2 4 3 3 4 2 5 1 6 7 7 8 8 16 9 9 10 15 11 10 12 11 13
REMARK SMILES IDX 12 14 14 15 13 16
REMARK H PARENT 11 17 13 18 13 19
ROOT
ATOM      1  C   UNL     1      50.631  56.285  21.491  1.00  0.00    +0.338 C 
ATOM      2  O   UNL     1      49.522  56.680  21.170  1.00  0.00    -0.246 OA
ENDROOT
BRANCH   1   3
ATOM      3  O   UNL     1      51.545  56.977  22.217  1.00  0.00    -0.462 OA
BRANCH   3   4
ATOM      4  C   UNL     1      52.033  58.186  21.616  1.00  0.00    +0.233 C 
BRANCH   4   5
ATOM      5  C   UNL     1      53.556  58.258  21.684  1.00  0.00    +0.038 C 
ATOM      6  C   UNL     1      54.223  57.491  20.552  1.00  0.00    +0.007 C 
ENDBRANCH   4   5
ENDBRANCH   3   4
ENDBRANCH   1   3
BRANCH   1   7
ATOM      7  C   UNL     1      51.163  54.943  21.127  1.00  0.00    +0.060 A 
ATOM      8  C   UNL     1      51.668  54.651  19.857  1.00  0.00    +0.018 A 
ATOM      9  C   UNL     1      51.168  53.943  22.104  1.00  0.00    +0.018 A 
ATOM     10  C   UNL     1      52.161  53.371  19.573  1.00  0.00    +0.027 A 
ATOM     11  C   UNL     1      51.660  52.663  21.816  1.00  0.00    +0.027 A 
ATOM     12  C   UNL     1      52.145  52.358  20.544  1.00  0.00    +0.040 A 
BRANCH  12  13
ATOM     13  N   UNL     1      52.680  51.109  20.165  1.00  0.00    -0.333 N 
ATOM     14  C   UNL     1      52.090  49.884  19.961  1.00  0.00    +0.168 C 
ATOM     15  S   UNL     1      50.493  49.453  19.822  1.00  0.00    -0.041 S 
ATOM     16  N   UNL     1      53.031  48.901  19.804  1.00  0.00    -0.376 N 
ATOM     17  H   UNL     1      53.637  51.136  19.837  1.00  0.00    +0.169 HD
ATOM     18  H   UNL     1      53.891  48.973  20.331  1.00  0.00    +0.159 HD
ATOM     19  H   UNL     1      52.656  47.960  19.741  1.00  0.00    +0.159 HD
ENDBRANCH  12  13
ENDBRANCH   1   7
TORSDOF 5
ENDMDL
MODEL 4
REMARK VINA RESULT:    -5.705      4.382      6.534
REMARK INTER + INTRA:          -7.809
REMARK INTER:                  -7.453
REMARK INTRA:                  -0.355
REMARK UNBOUND:                -0.436
REMARK SMILES CCCOC(=O)c1ccc(NC(N)=S)cc1
REMARK SMILES IDX 5 1 6 2 4 3 3 4 2 5 1 6 7 7 8 8 16 9 9 10 15 11 10 12 11 13
REMARK SMILES IDX 12 14 14 15 13 16
REMARK H PARENT 11 17 13 18 13 19
ROOT
ATOM      1  C   UNL     1      46.828  59.588  18.419  1.00  0.00    +0.338 C 
ATOM      2  O   UNL     1      46.545  59.588  17.232  1.00  0.00    -0.246 OA
ENDROOT
BRANCH   1   3
ATOM      3  O   UNL     1      46.462  60.527  19.327  1.00  0.00    -0.462 OA
BRANCH   3   4
ATOM      4  C   UNL     1      46.804  61.881  18.996  1.00  0.00    +0.233 C 
BRANCH   4   5
ATOM      5  C   UNL     1      46.030  62.872  19.862  1.00  0.00    +0.038 C 
ATOM      6  C   UNL     1      44.554  62.926  19.499  1.00  0.00    +0.007 C 
ENDBRANCH   4   5
ENDBRANCH   3   4
ENDBRANCH   1   3
BRANCH   1   7
ATOM      7  C   UNL     1      47.637  58.521  19.071  1.00  0.00    +0.060 A 
ATOM      8  C   UNL     1      48.137  57.420  18.370  1.00  0.00    +0.018 A 
ATOM      9  C   UNL     1      47.915  58.639  20.436  1.00  0.00    +0.018 A 
ATOM     10  C   UNL     1      48.897  56.449  19.036  1.00  0.00    +0.027 A 
ATOM     11  C   UNL     1      48.674  57.664  21.098  1.00  0.00    +0.027 A 
ATOM     12  C   UNL     1      49.158  56.552  20.410  1.00  0.00    +0.040 A 
BRANCH  12  13
ATOM     13  N   UNL     1      49.948  55.532  20.983  1.00  0.00    -0.333 N 
ATOM     14  C   UNL     1      51.307  55.331  21.003  1.00  0.00    +0.168 C 
ATOM     15  S   UNL     1      52.564  56.336  20.597  1.00  0.00    -0.041 S 
ATOM     16  N   UNL     1      51.617  54.093  21.500  1.00  0.00    -0.376 N 
ATOM     17  H   UNL     1      49.456  54.917  21.618  1.00  0.00    +0.169 HD
ATOM     18  H   UNL     1      50.990  53.325  21.298  1.00  0.00    +0.159 HD
ATOM     19  H   UNL     1      52.602  53.851  21.455  1.00  0.00    +0.159 HD
ENDBRANCH  12  13
ENDBRANCH   1   7
TORSDOF 5
ENDMDL
MODEL 5
REMARK VINA RESULT:    -5.603      2.843      3.890
REMARK INTER + INTRA:          -7.678
REMARK INTER:                  -7.375
REMARK INTRA:                  -0.303
REMARK UNBOUND:                -0.436
REMARK SMILES CCCOC(=O)c1ccc(NC(N)=S)cc1
REMARK SMILES IDX 5 1 6 2 4 3 3 4 2 5 1 6 7 7 8 8 16 9 9 10 15 11 10 12 11 13
REMARK SMILES IDX 12 14 14 15 13 16
REMARK H PARENT 11 17 13 18 13 19
ROOT
ATOM      1  C   UNL     1      48.406  57.598  20.049  1.00  0.00    +0.338 C 
ATOM      2  O   UNL     1      48.544  58.697  20.560  1.00  0.00    -0.246 OA
ENDROOT
BRANCH   1   3
ATOM      3  O   UNL     1      47.558  57.289  19.037  1.00  0.00    -0.462 OA
BRANCH   3   4
ATOM      4  C   UNL     1      47.602  58.162  17.898  1.00  0.00    +0.233 C 
BRANCH   4   5
ATOM      5  C   UNL     1      47.917  57.386  16.621  1.00  0.00    +0.038 C 
ATOM      6  C   UNL     1      46.776  57.441  15.616  1.00  0.00    +0.007 C 
ENDBRANCH   4   5
ENDBRANCH   3   4
ENDBRANCH   1   3
BRANCH   1   7
ATOM      7  C   UNL     1      49.173  56.394  20.471  1.00  0.00    +0.060 A 
ATOM      8  C   UNL     1      48.900  55.115  19.977  1.00  0.00    +0.018 A 
ATOM      9  C   UNL     1      50.215  56.557  21.389  1.00  0.00    +0.018 A 
ATOM     10  C   UNL     1      49.658  54.018  20.407  1.00  0.00    +0.027 A 
ATOM     11  C   UNL     1      50.970  55.457  21.818  1.00  0.00    +0.027 A 
ATOM     12  C   UNL     1      50.689  54.175  21.346  1.00  0.00    +0.040 A 
BRANCH  12  13
ATOM     13  N   UNL     1      51.405  53.012  21.700  1.00  0.00    -0.333 N 
ATOM     14  C   UNL     1      52.028  52.053  20.937  1.00  0.00    +0.168 C 
ATOM     15  S   UNL     1      52.410  52.023  19.322  1.00  0.00    -0.041 S 
ATOM     16  N   UNL     1      52.421  50.988  21.704  1.00  0.00    -0.376 N 
ATOM     17  H   UNL     1      51.638  52.936  22.681  1.00  0.00    +0.169 HD
ATOM     18  H   UNL     1      51.838  50.720  22.485  1.00  0.00    +0.159 HD
ATOM     19  H   UNL     1      52.806  50.207  21.181  1.00  0.00    +0.159 HD
ENDBRANCH  12  13
ENDBRANCH   1   7
TORSDOF 5
ENDMDL
