MODEL 1
REMARK VINA RESULT:    -7.049      0.000      0.000
REMARK INTER + INTRA:          -9.660
REMARK INTER:                  -9.110
REMARK INTRA:                  -0.550
REMARK UNBOUND:                -0.550
REMARK SMILES CC(=O)Nc1ccc(N[C@@H](C)C(=O)NC2CC2)cc1
REMARK SMILES IDX 9 1 10 3 11 4 12 5 13 6 14 7 15 9 16 10 17 11 8 12 7 13
REMARK SMILES IDX 18 14 6 15 19 16 5 17 4 18 2 19 3 20 1 22
REMARK H PARENT 9 2 14 8 4 21
ROOT
ATOM      1  N   UNL     1      51.217  51.393  20.575  1.00  0.00    -0.374 N 
ATOM      2  H   UNL     1      51.339  50.821  21.411  1.00  0.00    +0.161 HD
ENDROOT
BRANCH   1   3
ATOM      3  C   UNL     1      51.877  50.774  19.402  1.00  0.00    +0.165 C 
ATOM      4  C   UNL     1      52.699  49.561  19.821  1.00  0.00    +0.041 C 
BRANCH   3   5
ATOM      5  C   UNL     1      50.790  50.373  18.375  1.00  0.00    +0.242 C 
ATOM      6  O   UNL     1      50.716  50.835  17.240  1.00  0.00    -0.273 OA
ATOM      7  N   UNL     1      49.876  49.479  18.908  1.00  0.00    -0.352 N 
ATOM      8  H   UNL     1      50.142  49.075  19.805  1.00  0.00    +0.163 HD
BRANCH   7   9
ATOM      9  C   UNL     1      48.827  48.891  18.144  1.00  0.00    +0.082 C 
ATOM     10  C   UNL     1      47.605  49.689  17.782  1.00  0.00    +0.027 C 
ATOM     11  C   UNL     1      47.502  48.576  18.784  1.00  0.00    +0.027 C 
ENDBRANCH   7   9
ENDBRANCH   3   5
ENDBRANCH   1   3
BRANCH   1  12
ATOM     12  C   UNL     1      51.358  52.752  20.862  1.00  0.00    +0.035 A 
ATOM     13  C   UNL     1      51.603  53.633  19.801  1.00  0.00    +0.028 A 
ATOM     14  C   UNL     1      51.413  53.278  22.154  1.00  0.00    +0.028 A 
ATOM     15  C   UNL     1      51.824  55.002  20.012  1.00  0.00    +0.028 A 
ATOM     16  C   UNL     1      51.633  54.646  22.373  1.00  0.00    +0.028 A 
ATOM     17  C   UNL     1      51.836  55.521  21.303  1.00  0.00    +0.041 A 
BRANCH  17  18
ATOM     18  N   UNL     1      52.048  56.881  21.608  1.00  0.00    -0.326 N 
ATOM     19  C   UNL     1      53.219  57.603  21.463  1.00  0.00    +0.221 C 
ATOM     20  O   UNL     1      54.298  57.188  21.059  1.00  0.00    -0.275 OA
ATOM     21  H   UNL     1      51.249  57.380  21.979  1.00  0.00    +0.169 HD
ATOM     22  C   UNL     1      53.060  59.039  21.902  1.00  0.00    +0.114 C 
ENDBRANCH  17  18
ENDBRANCH   1  12
TORSDOF 5
ENDMDL
MODEL 2
REMARK VINA RESULT:    -6.861      2.517      7.757
REMARK INTER + INTRA:          -9.416
REMARK INTER:                  -8.799
REMARK INTRA:                  -0.617
REMARK UNBOUND:                -0.550
REMARK SMILES CC(=O)Nc1ccc(N[C@@H](C)C(=O)NC2CC2)cc1
REMARK SMILES IDX 9 1 10 3 11 4 12 5 13 6 14 7 15 9 16 10 17 11 8 12 7 13
REMARK SMILES IDX 18 14 6 15 19 16 5 17 4 18 2 19 3 20 1 22
REMARK H PARENT 9 2 14 8 4 21
ROOT
ATOM      1  N   UNL     1      50.949  52.661  19.397  1.00  0.00    -0.374 N 
ATOM      2  H   UNL     1      51.898  52.315  19.252  1.00  0.00    +0.161 HD
ENDROOT
BRANCH   1   3
ATOM      3  C   UNL     1      50.734  53.063  20.807  1.00  0.00    +0.165 C 
ATOM      4  C   UNL     1      51.646  52.273  21.739  1.00  0.00    +0.041 C 
BRANCH   3   5
ATOM      5  C   UNL     1      50.997  54.582  20.936  1.00  0.00    +0.242 C 
ATOM      6  O   UNL     1      52.069  55.064  21.292  1.00  0.00    -0.273 OA
ATOM      7  N   UNL     1      49.864  55.331  20.663  1.00  0.00    -0.352 N 
ATOM      8  H   UNL     1      49.094  54.810  20.245  1.00  0.00    +0.163 HD
BRANCH   7   9
ATOM      9  C   UNL     1      49.862  56.755  20.631  1.00  0.00    +0.082 C 
ATOM     10  C   UNL     1      49.687  57.549  21.897  1.00  0.00    +0.027 C 
ATOM     11  C   UNL     1      48.591  57.522  20.873  1.00  0.00    +0.027 C 
ENDBRANCH   7   9
ENDBRANCH   3   5
ENDBRANCH   1   3
BRANCH   1  12
ATOM     12  C   UNL     1      50.015  51.890  18.704  1.00  0.00    +0.035 A 
ATOM     13  C   UNL     1      49.071  52.548  17.906  1.00  0.00    +0.028 A 
ATOM     14  C   UNL     1      49.866  50.510  18.862  1.00  0.00    +0.028 A 
ATOM     15  C   UNL     1      48.056  51.852  17.232  1.00  0.00    +0.028 A 
ATOM     16  C   UNL     1      48.854  49.808  18.190  1.00  0.00    +0.028 A 
ATOM     17  C   UNL     1      47.943  50.472  17.365  1.00  0.00    +0.041 A 
BRANCH  17  18
ATOM     18  N   UNL     1      46.960  49.692  16.724  1.00  0.00    -0.326 N 
ATOM     19  C   UNL     1      47.080  48.997  15.534  1.00  0.00    +0.221 C 
ATOM     20  O   UNL     1      48.063  48.946  14.804  1.00  0.00    -0.275 OA
ATOM     21  H   UNL     1      46.063  49.641  17.192  1.00  0.00    +0.169 HD
ATOM     22  C   UNL     1      45.806  48.278  15.163  1.00  0.00    +0.114 C 
ENDBRANCH  17  18
ENDBRANCH   1  12
TORSDOF 5
ENDMDL
MODEL 3
REMARK VINA RESULT:    -6.839      2.456      3.617
REMARK INTER + INTRA:          -9.388
REMARK INTER:                  -8.794
REMARK INTRA:                  -0.593
REMARK UNBOUND:                -0.550
REMARK SMILES CC(=O)Nc1ccc(N[C@@H](C)C(=O)NC2CC2)cc1
REMARK SMILES IDX 9 1 10 3 11 4 12 5 13 6 14 7 15 9 16 10 17 11 8 12 7 13
REMARK SMILES IDX 18 14 6 15 19 16 5 17 4 18 2 19 3 20 1 22
REMARK H PARENT 9 2 14 8 4 21
ROOT
ATOM      1  N   UNL     1      50.429  50.055  16.928  1.00  0.00    -0.374 N 
ATOM      2  H   UNL     1      51.257  49.461  16.870  1.00  0.00    +0.161 HD
ENDROOT
BRANCH   1   3
ATOM      3  C   UNL     1      49.752  50.162  15.615  1.00  0.00    +0.165 C 
ATOM      4  C   UNL     1      50.659  49.660  14.496  1.00  0.00    +0.041 C 
BRANCH   3   5
ATOM      5  C   UNL     1      48.438  49.346  15.665  1.00  0.00    +0.242 C 
ATOM      6  O   UNL     1      47.776  49.051  14.674  1.00  0.00    -0.273 OA
ATOM      7  N   UNL     1      48.065  49.040  16.964  1.00  0.00    -0.352 N 
ATOM      8  H   UNL     1      48.778  49.221  17.671  1.00  0.00    +0.163 HD
BRANCH   7   9
ATOM      9  C   UNL     1      46.940  48.227  17.280  1.00  0.00    +0.082 C 
ATOM     10  C   UNL     1      45.625  48.853  17.655  1.00  0.00    +0.027 C 
ATOM     11  C   UNL     1      46.437  48.136  18.695  1.00  0.00    +0.027 C 
ENDBRANCH   7   9
ENDBRANCH   3   5
ENDBRANCH   1   3
BRANCH   1  12
ATOM     12  C   UNL     1      50.663  51.176  17.725  1.00  0.00    +0.035 A 
ATOM     13  C   UNL     1      51.932  51.330  18.298  1.00  0.00    +0.028 A 
ATOM     14  C   UNL     1      49.676  52.086  18.109  1.00  0.00    +0.028 A 
ATOM     15  C   UNL     1      52.229  52.392  19.166  1.00  0.00    +0.028 A 
ATOM     16  C   UNL     1      49.966  53.150  18.975  1.00  0.00    +0.028 A 
ATOM     17  C   UNL     1      51.247  53.316  19.508  1.00  0.00    +0.041 A 
BRANCH  17  18
ATOM     18  N   UNL     1      51.455  54.412  20.369  1.00  0.00    -0.326 N 
ATOM     19  C   UNL     1      51.637  54.383  21.739  1.00  0.00    +0.221 C 
ATOM     20  O   UNL     1      51.631  53.396  22.465  1.00  0.00    -0.275 OA
ATOM     21  H   UNL     1      51.469  55.323  19.927  1.00  0.00    +0.169 HD
ATOM     22  C   UNL     1      51.827  55.764  22.319  1.00  0.00    +0.114 C 
ENDBRANCH  17  18
ENDBRANCH   1  12
TORSDOF 5
ENDMDL
MODEL 4
REMARK VINA RESULT:    -6.695      1.714      2.024
REMARK INTER + INTRA:          -9.202
REMARK INTER:                  -8.613
REMARK INTRA:                  -0.589
REMARK UNBOUND:                -0.550
REMARK SMILES CC(=O)Nc1ccc(N[C@@H](C)C(=O)NC2CC2)cc1
REMARK SMILES IDX 9 1 10 3 11 4 12 5 13 6 14 7 15 9 16 10 17 11 8 12 7 13
REMARK SMILES IDX 18 14 6 15 19 16 5 17 4 18 2 19 3 20 1 22
REMARK H PARENT 9 2 14 8 4 21
ROOT
ATOM      1  N   UNL     1      49.499  52.059  18.757  1.00  0.00    -0.374 N 
ATOM      2  H   UNL     1      48.698  51.834  19.348  1.00  0.00    +0.161 HD
ENDROOT
BRANCH   1   3
ATOM      3  C   UNL     1      50.251  50.838  18.386  1.00  0.00    +0.165 C 
ATOM      4  C   UNL     1      50.747  50.108  19.630  1.00  0.00    +0.041 C 
BRANCH   3   5
ATOM      5  C   UNL     1      49.331  49.924  17.543  1.00  0.00    +0.242 C 
ATOM      6  O   UNL     1      49.586  49.563  16.397  1.00  0.00    -0.273 OA
ATOM      7  N   UNL     1      48.157  49.611  18.210  1.00  0.00    -0.352 N 
ATOM      8  H   UNL     1      48.145  49.857  19.199  1.00  0.00    +0.163 HD
BRANCH   7   9
ATOM      9  C   UNL     1      47.179  48.717  17.686  1.00  0.00    +0.082 C 
ATOM     10  C   UNL     1      45.733  49.124  17.613  1.00  0.00    +0.027 C 
ATOM     11  C   UNL     1      46.167  48.076  18.595  1.00  0.00    +0.027 C 
ENDBRANCH   7   9
ENDBRANCH   3   5
ENDBRANCH   1   3
BRANCH   1  12
ATOM     12  C   UNL     1      50.147  53.214  19.197  1.00  0.00    +0.035 A 
ATOM     13  C   UNL     1      49.437  54.104  20.013  1.00  0.00    +0.028 A 
ATOM     14  C   UNL     1      51.412  53.616  18.764  1.00  0.00    +0.028 A 
ATOM     15  C   UNL     1      49.991  55.319  20.441  1.00  0.00    +0.028 A 
ATOM     16  C   UNL     1      51.974  54.830  19.190  1.00  0.00    +0.028 A 
ATOM     17  C   UNL     1      51.270  55.690  20.036  1.00  0.00    +0.041 A 
BRANCH  17  18
ATOM     18  N   UNL     1      51.906  56.888  20.419  1.00  0.00    -0.326 N 
ATOM     19  C   UNL     1      52.608  57.133  21.585  1.00  0.00    +0.221 C 
ATOM     20  O   UNL     1      52.790  56.356  22.515  1.00  0.00    -0.275 OA
ATOM     21  H   UNL     1      51.835  57.655  19.761  1.00  0.00    +0.169 HD
ATOM     22  C   UNL     1      53.145  58.542  21.642  1.00  0.00    +0.114 C 
ENDBRANCH  17  18
ENDBRANCH   1  12
TORSDOF 5
ENDMDL
MODEL 5
REMARK VINA RESULT:    -6.643      2.719      7.982
REMARK INTER + INTRA:          -9.135
REMARK INTER:                  -8.523
REMARK INTRA:                  -0.612
REMARK UNBOUND:                -0.550
REMARK SMILES CC(=O)Nc1ccc(N[C@@H](C)C(=O)NC2CC2)cc1
REMARK SMILES IDX 9 1 10 3 11 4 12 5 13 6 14 7 15 9 16 10 17 11 8 12 7 13
REMARK SMILES IDX 18 14 6 15 19 16 5 17 4 18 2 19 3 20 1 22
REMARK H PARENT 9 2 14 8 4 21
ROOT
ATOM      1  N   UNL     1      50.432  53.265  18.647  1.00  0.00    -0.374 N 
ATOM      2  H   UNL     1      50.708  53.994  17.988  1.00  0.00    +0.161 HD
ENDROOT
BRANCH   1   3
ATOM      3  C   UNL     1      51.587  52.810  19.456  1.00  0.00    +0.165 C 
ATOM      4  C   UNL     1      52.902  53.186  18.784  1.00  0.00    +0.041 C 
BRANCH   3   5
ATOM      5  C   UNL     1      51.487  53.444  20.864  1.00  0.00    +0.242 C 
ATOM      6  O   UNL     1      51.206  52.816  21.881  1.00  0.00    -0.273 OA
ATOM      7  N   UNL     1      51.693  54.814  20.833  1.00  0.00    -0.352 N 
ATOM      8  H   UNL     1      52.057  55.174  19.952  1.00  0.00    +0.163 HD
BRANCH   7   9
ATOM      9  C   UNL     1      51.738  55.621  22.005  1.00  0.00    +0.082 C 
ATOM     10  C   UNL     1      50.796  56.782  22.171  1.00  0.00    +0.027 C 
ATOM     11  C   UNL     1      52.259  57.031  21.942  1.00  0.00    +0.027 C 
ENDBRANCH   7   9
ENDBRANCH   3   5
ENDBRANCH   1   3
BRANCH   1  12
ATOM     12  C   UNL     1      49.545  52.360  18.062  1.00  0.00    +0.035 A 
ATOM     13  C   UNL     1      49.701  50.998  18.348  1.00  0.00    +0.028 A 
ATOM     14  C   UNL     1      48.597  52.705  17.097  1.00  0.00    +0.028 A 
ATOM     15  C   UNL     1      48.895  50.019  17.748  1.00  0.00    +0.028 A 
ATOM     16  C   UNL     1      47.787  51.731  16.493  1.00  0.00    +0.028 A 
ATOM     17  C   UNL     1      47.926  50.379  16.818  1.00  0.00    +0.041 A 
BRANCH  17  18
ATOM     18  N   UNL     1      47.071  49.465  16.168  1.00  0.00    -0.326 N 
ATOM     19  C   UNL     1      45.829  49.029  16.592  1.00  0.00    +0.221 C 
ATOM     20  O   UNL     1      45.247  49.342  17.623  1.00  0.00    -0.275 OA
ATOM     21  H   UNL     1      47.414  49.086  15.295  1.00  0.00    +0.169 HD
ATOM     22  C   UNL     1      45.214  48.042  15.629  1.00  0.00    +0.114 C 
ENDBRANCH  17  18
ENDBRANCH   1  12
TORSDOF 5
ENDMDL
