MODEL 1
REMARK VINA RESULT:    -6.318      0.000      0.000
REMARK INTER + INTRA:         -10.133
REMARK INTER:                  -9.273
REMARK INTRA:                  -0.860
REMARK UNBOUND:                -0.860
REMARK SMILES CC[C@H](C)NC(=O)[C@@H](C)[NH2+][C@H](C(=O)OC)C(C)C
REMARK SMILES IDX 8 1 9 2 6 3 5 4 7 5 3 7 4 8 2 9 1 10 10 11 11 14 16 15 17 16
REMARK SMILES IDX 18 17 12 18 13 19 14 20 15 21
REMARK H PARENT 5 6 10 12 10 13
ROOT
ATOM      1  C   UNL     1      51.626  53.463  21.288  1.00  0.00    +0.270 C 
ATOM      2  C   UNL     1      50.935  52.326  22.022  1.00  0.00    +0.086 C 
ENDROOT
BRANCH   1   3
ATOM      3  C   UNL     1      51.458  54.835  21.973  1.00  0.00    +0.278 C 
ATOM      4  N   UNL     1      50.724  55.779  21.299  1.00  0.00    -0.349 N 
ATOM      5  O   UNL     1      51.946  55.015  23.087  1.00  0.00    -0.268 OA
ATOM      6  H   UNL     1      50.208  55.536  20.461  1.00  0.00    +0.163 HD
BRANCH   4   7
ATOM      7  C   UNL     1      50.434  57.098  21.868  1.00  0.00    +0.078 C 
ATOM      8  C   UNL     1      51.513  58.082  21.422  1.00  0.00    +0.031 C 
BRANCH   7   9
ATOM      9  C   UNL     1      49.045  57.596  21.436  1.00  0.00    +0.021 C 
ATOM     10  C   UNL     1      48.385  56.710  20.387  1.00  0.00    +0.006 C 
ENDBRANCH   7   9
ENDBRANCH   4   7
ENDBRANCH   1   3
BRANCH   1  11
ATOM     11  N   UNL     1      51.176  53.533  19.833  1.00  0.00    -0.324 N 
ATOM     12  H   UNL     1      51.783  54.187  19.314  1.00  0.00    +0.347 HD
ATOM     13  H   UNL     1      50.229  53.933  19.860  1.00  0.00    +0.347 HD
BRANCH  11  14
ATOM     14  C   UNL     1      51.116  52.224  19.030  1.00  0.00    +0.296 C 
BRANCH  14  15
ATOM     15  C   UNL     1      50.015  52.302  17.942  1.00  0.00    +0.053 C 
ATOM     16  C   UNL     1      49.095  53.520  18.084  1.00  0.00    +0.014 C 
ATOM     17  C   UNL     1      49.177  51.023  17.874  1.00  0.00    +0.014 C 
ENDBRANCH  14  15
BRANCH  14  18
ATOM     18  C   UNL     1      52.474  51.960  18.368  1.00  0.00    +0.364 C 
ATOM     19  O   UNL     1      53.171  52.875  17.943  1.00  0.00    -0.245 OA
BRANCH  18  20
ATOM     20  O   UNL     1      52.772  50.640  18.338  1.00  0.00    -0.465 OA
ATOM     21  C   UNL     1      52.621  49.969  19.594  1.00  0.00    +0.282 C 
ENDBRANCH  18  20
ENDBRANCH  14  18
ENDBRANCH  11  14
ENDBRANCH   1  11
TORSDOF 8
ENDMDL
MODEL 2
REMARK VINA RESULT:    -5.828      2.969      6.309
REMARK INTER + INTRA:          -9.413
REMARK INTER:                  -8.265
REMARK INTRA:                  -1.148
REMARK UNBOUND:                -0.860
REMARK SMILES CC[C@H](C)NC(=O)[C@@H](C)[NH2+][C@H](C(=O)OC)C(C)C
REMARK SMILES IDX 8 1 9 2 6 3 5 4 7 5 3 7 4 8 2 9 1 10 10 11 11 14 16 15 17 16
REMARK SMILES IDX 18 17 12 18 13 19 14 20 15 21
REMARK H PARENT 5 6 10 12 10 13
ROOT
ATOM      1  C   UNL     1      49.591  52.143  17.704  1.00  0.00    +0.270 C 
ATOM      2  C   UNL     1      49.001  53.543  17.678  1.00  0.00    +0.086 C 
ENDROOT
BRANCH   1   3
ATOM      3  C   UNL     1      48.641  51.061  17.149  1.00  0.00    +0.278 C 
ATOM      4  N   UNL     1      48.731  49.810  17.707  1.00  0.00    -0.349 N 
ATOM      5  O   UNL     1      47.833  51.362  16.272  1.00  0.00    -0.268 OA
ATOM      6  H   UNL     1      49.296  49.649  18.534  1.00  0.00    +0.163 HD
BRANCH   4   7
ATOM      7  C   UNL     1      47.842  48.713  17.317  1.00  0.00    +0.078 C 
ATOM      8  C   UNL     1      48.644  47.413  17.270  1.00  0.00    +0.031 C 
BRANCH   7   9
ATOM      9  C   UNL     1      46.663  48.578  18.294  1.00  0.00    +0.021 C 
ATOM     10  C   UNL     1      45.315  48.897  17.662  1.00  0.00    +0.006 C 
ENDBRANCH   7   9
ENDBRANCH   4   7
ENDBRANCH   1   3
BRANCH   1  11
ATOM     11  N   UNL     1      50.065  51.770  19.105  1.00  0.00    -0.324 N 
ATOM     12  H   UNL     1      49.686  50.845  19.363  1.00  0.00    +0.347 HD
ATOM     13  H   UNL     1      49.644  52.471  19.730  1.00  0.00    +0.347 HD
BRANCH  11  14
ATOM     14  C   UNL     1      51.577  51.741  19.372  1.00  0.00    +0.296 C 
BRANCH  14  15
ATOM     15  C   UNL     1      51.943  52.699  20.534  1.00  0.00    +0.053 C 
ATOM     16  C   UNL     1      51.028  52.564  21.756  1.00  0.00    +0.014 C 
ATOM     17  C   UNL     1      51.995  54.162  20.084  1.00  0.00    +0.014 C 
ENDBRANCH  14  15
BRANCH  14  18
ATOM     18  C   UNL     1      52.013  50.315  19.728  1.00  0.00    +0.364 C 
ATOM     19  O   UNL     1      53.138  50.073  20.155  1.00  0.00    -0.245 OA
BRANCH  18  20
ATOM     20  O   UNL     1      51.020  49.418  19.523  1.00  0.00    -0.465 OA
ATOM     21  C   UNL     1      50.592  48.726  20.701  1.00  0.00    +0.282 C 
ENDBRANCH  18  20
ENDBRANCH  14  18
ENDBRANCH  11  14
ENDBRANCH   1  11
TORSDOF 8
ENDMDL
MODEL 3
REMARK VINA RESULT:    -5.816      2.641      4.378
REMARK INTER + INTRA:          -9.396
REMARK INTER:                  -8.350
REMARK INTRA:                  -1.046
REMARK UNBOUND:                -0.860
REMARK SMILES CC[C@H](C)NC(=O)[C@@H](C)[NH2+][C@H](C(=O)OC)C(C)C
REMARK SMILES IDX 8 1 9 2 6 3 5 4 7 5 3 7 4 8 2 9 1 10 10 11 11 14 16 15 17 16
REMARK SMILES IDX 18 17 12 18 13 19 14 20 15 21
REMARK H PARENT 5 6 10 12 10 13
ROOT
ATOM      1  C   UNL     1      50.935  49.429  19.820  1.00  0.00    +0.270 C 
ATOM      2  C   UNL     1      50.661  48.498  20.990  1.00  0.00    +0.086 C 
ENDROOT
BRANCH   1   3
ATOM      3  C   UNL     1      51.858  50.613  20.175  1.00  0.00    +0.278 C 
ATOM      4  N   UNL     1      51.255  51.822  20.414  1.00  0.00    -0.349 N 
ATOM      5  O   UNL     1      53.071  50.424  20.263  1.00  0.00    -0.268 OA
ATOM      6  H   UNL     1      50.245  51.894  20.488  1.00  0.00    +0.163 HD
BRANCH   4   7
ATOM      7  C   UNL     1      52.011  53.007  20.825  1.00  0.00    +0.078 C 
ATOM      8  C   UNL     1      52.196  53.925  19.618  1.00  0.00    +0.031 C 
BRANCH   7   9
ATOM      9  C   UNL     1      51.296  53.757  21.962  1.00  0.00    +0.021 C 
ATOM     10  C   UNL     1      51.665  55.233  22.037  1.00  0.00    +0.006 C 
ENDBRANCH   7   9
ENDBRANCH   4   7
ENDBRANCH   1   3
BRANCH   1  11
ATOM     11  N   UNL     1      49.636  49.933  19.201  1.00  0.00    -0.324 N 
ATOM     12  H   UNL     1      49.525  50.940  19.399  1.00  0.00    +0.347 HD
ATOM     13  H   UNL     1      48.886  49.429  19.693  1.00  0.00    +0.347 HD
BRANCH  11  14
ATOM     14  C   UNL     1      49.430  49.734  17.691  1.00  0.00    +0.296 C 
BRANCH  14  15
ATOM     15  C   UNL     1      48.190  48.845  17.423  1.00  0.00    +0.053 C 
ATOM     16  C   UNL     1      47.280  48.672  18.645  1.00  0.00    +0.014 C 
ATOM     17  C   UNL     1      48.570  47.473  16.860  1.00  0.00    +0.014 C 
ENDBRANCH  14  15
BRANCH  14  18
ATOM     18  C   UNL     1      49.243  51.095  17.010  1.00  0.00    +0.364 C 
ATOM     19  O   UNL     1      48.869  51.186  15.845  1.00  0.00    -0.245 OA
BRANCH  18  20
ATOM     20  O   UNL     1      49.525  52.121  17.847  1.00  0.00    -0.465 OA
ATOM     21  C   UNL     1      48.776  53.315  17.596  1.00  0.00    +0.282 C 
ENDBRANCH  18  20
ENDBRANCH  14  18
ENDBRANCH  11  14
ENDBRANCH   1  11
TORSDOF 8
ENDMDL
MODEL 4
REMARK VINA RESULT:    -5.755      3.438      6.651
REMARK INTER + INTRA:          -9.306
REMARK INTER:                  -8.824
REMARK INTRA:                  -0.482
REMARK UNBOUND:                -0.860
REMARK SMILES CC[C@H](C)NC(=O)[C@@H](C)[NH2+][C@H](C(=O)OC)C(C)C
REMARK SMILES IDX 8 1 9 2 6 3 5 4 7 5 3 7 4 8 2 9 1 10 10 11 11 14 16 15 17 16
REMARK SMILES IDX 18 17 12 18 13 19 14 20 15 21
REMARK H PARENT 5 6 10 12 10 13
ROOT
ATOM      1  C   UNL     1      49.571  49.525  19.054  1.00  0.00    +0.270 C 
ATOM      2  C   UNL     1      50.288  48.922  20.251  1.00  0.00    +0.086 C 
ENDROOT
BRANCH   1   3
ATOM      3  C   UNL     1      48.577  48.558  18.377  1.00  0.00    +0.278 C 
ATOM      4  N   UNL     1      47.255  48.684  18.723  1.00  0.00    -0.349 N 
ATOM      5  O   UNL     1      48.993  47.753  17.545  1.00  0.00    -0.268 OA
ATOM      6  H   UNL     1      46.937  49.464  19.289  1.00  0.00    +0.163 HD
BRANCH   4   7
ATOM      7  C   UNL     1      46.203  47.873  18.104  1.00  0.00    +0.078 C 
ATOM      8  C   UNL     1      45.256  47.370  19.191  1.00  0.00    +0.031 C 
BRANCH   7   9
ATOM      9  C   UNL     1      45.426  48.680  17.051  1.00  0.00    +0.021 C 
ATOM     10  C   UNL     1      45.973  48.513  15.639  1.00  0.00    +0.006 C 
ENDBRANCH   7   9
ENDBRANCH   4   7
ENDBRANCH   1   3
BRANCH   1  11
ATOM     11  N   UNL     1      50.564  50.070  18.034  1.00  0.00    -0.324 N 
ATOM     12  H   UNL     1      50.489  49.533  17.156  1.00  0.00    +0.347 HD
ATOM     13  H   UNL     1      51.494  49.892  18.437  1.00  0.00    +0.347 HD
BRANCH  11  14
ATOM     14  C   UNL     1      50.483  51.561  17.671  1.00  0.00    +0.296 C 
BRANCH  14  15
ATOM     15  C   UNL     1      49.017  52.059  17.744  1.00  0.00    +0.053 C 
ATOM     16  C   UNL     1      48.163  51.638  16.542  1.00  0.00    +0.014 C 
ATOM     17  C   UNL     1      48.929  53.576  17.936  1.00  0.00    +0.014 C 
ENDBRANCH  14  15
BRANCH  14  18
ATOM     18  C   UNL     1      51.350  52.378  18.636  1.00  0.00    +0.364 C 
ATOM     19  O   UNL     1      52.313  53.029  18.242  1.00  0.00    -0.245 OA
BRANCH  18  20
ATOM     20  O   UNL     1      50.909  52.286  19.912  1.00  0.00    -0.465 OA
ATOM     21  C   UNL     1      51.946  52.251  20.898  1.00  0.00    +0.282 C 
ENDBRANCH  18  20
ENDBRANCH  14  18
ENDBRANCH  11  14
ENDBRANCH   1  11
TORSDOF 8
ENDMDL
MODEL 5
REMARK VINA RESULT:    -5.684      2.869      4.584
REMARK INTER + INTRA:          -9.202
REMARK INTER:                  -8.356
REMARK INTRA:                  -0.845
REMARK UNBOUND:                -0.860
REMARK SMILES CC[C@H](C)NC(=O)[C@@H](C)[NH2+][C@H](C(=O)OC)C(C)C
REMARK SMILES IDX 8 1 9 2 6 3 5 4 7 5 3 7 4 8 2 9 1 10 10 11 11 14 16 15 17 16
REMARK SMILES IDX 18 17 12 18 13 19 14 20 15 21
REMARK H PARENT 5 6 10 12 10 13
ROOT
ATOM      1  C   UNL     1      51.048  50.052  19.138  1.00  0.00    +0.270 C 
ATOM      2  C   UNL     1      50.617  49.395  20.439  1.00  0.00    +0.086 C 
ENDROOT
BRANCH   1   3
ATOM      3  C   UNL     1      51.216  51.582  19.244  1.00  0.00    +0.278 C 
ATOM      4  N   UNL     1      50.811  52.172  20.415  1.00  0.00    -0.349 N 
ATOM      5  O   UNL     1      51.728  52.197  18.309  1.00  0.00    -0.268 OA
ATOM      6  H   UNL     1      50.545  51.609  21.216  1.00  0.00    +0.163 HD
BRANCH   4   7
ATOM      7  C   UNL     1      50.977  53.606  20.668  1.00  0.00    +0.078 C 
ATOM      8  C   UNL     1      49.644  54.312  20.434  1.00  0.00    +0.031 C 
BRANCH   7   9
ATOM      9  C   UNL     1      51.474  53.863  22.101  1.00  0.00    +0.021 C 
ATOM     10  C   UNL     1      51.554  55.342  22.454  1.00  0.00    +0.006 C 
ENDBRANCH   7   9
ENDBRANCH   4   7
ENDBRANCH   1   3
BRANCH   1  11
ATOM     11  N   UNL     1      50.097  49.697  18.000  1.00  0.00    -0.324 N 
ATOM     12  H   UNL     1      50.212  48.702  17.752  1.00  0.00    +0.347 HD
ATOM     13  H   UNL     1      50.409  50.262  17.199  1.00  0.00    +0.347 HD
BRANCH  11  14
ATOM     14  C   UNL     1      48.596  49.952  18.205  1.00  0.00    +0.296 C 
BRANCH  14  15
ATOM     15  C   UNL     1      48.016  50.767  17.022  1.00  0.00    +0.053 C 
ATOM     16  C   UNL     1      48.839  50.655  15.733  1.00  0.00    +0.014 C 
ATOM     17  C   UNL     1      47.810  52.242  17.380  1.00  0.00    +0.014 C 
ENDBRANCH  14  15
BRANCH  14  18
ATOM     18  C   UNL     1      47.855  48.615  18.320  1.00  0.00    +0.364 C 
ATOM     19  O   UNL     1      46.801  48.515  18.941  1.00  0.00    -0.245 OA
BRANCH  18  20
ATOM     20  O   UNL     1      48.496  47.624  17.658  1.00  0.00    -0.465 OA
ATOM     21  C   UNL     1      47.717  46.989  16.638  1.00  0.00    +0.282 C 
ENDBRANCH  18  20
ENDBRANCH  14  18
ENDBRANCH  11  14
ENDBRANCH   1  11
TORSDOF 8
ENDMDL
