MODEL 1
REMARK VINA RESULT:    -6.005      0.000      0.000
REMARK INTER + INTRA:          -9.550
REMARK INTER:                  -8.814
REMARK INTRA:                  -0.736
REMARK UNBOUND:                -0.736
REMARK SMILES CC[C@@H](C)NC(=O)[C@H](C)[NH2+][C@H](C(=O)OC)C(C)C
REMARK SMILES IDX 8 1 9 2 6 3 5 4 7 5 3 7 4 8 2 9 1 10 10 11 11 14 16 15 17 16
REMARK SMILES IDX 18 17 12 18 13 19 14 20 15 21
REMARK H PARENT 5 6 10 12 10 13
ROOT
ATOM      1  C   UNL     1      51.697  53.399  20.764  1.00  0.00    +0.270 C 
ATOM      2  C   UNL     1      51.396  52.213  21.668  1.00  0.00    +0.086 C 
ENDROOT
BRANCH   1   3
ATOM      3  C   UNL     1      51.350  53.102  19.292  1.00  0.00    +0.278 C 
ATOM      4  N   UNL     1      50.119  52.523  19.074  1.00  0.00    -0.349 N 
ATOM      5  O   UNL     1      52.146  53.360  18.393  1.00  0.00    -0.268 OA
ATOM      6  H   UNL     1      49.437  52.469  19.822  1.00  0.00    +0.163 HD
BRANCH   4   7
ATOM      7  C   UNL     1      49.627  52.254  17.721  1.00  0.00    +0.078 C 
ATOM      8  C   UNL     1      48.342  53.036  17.452  1.00  0.00    +0.031 C 
BRANCH   7   9
ATOM      9  C   UNL     1      49.473  50.744  17.477  1.00  0.00    +0.021 C 
ATOM     10  C   UNL     1      49.639  49.866  18.711  1.00  0.00    +0.006 C 
ENDBRANCH   7   9
ENDBRANCH   4   7
ENDBRANCH   1   3
BRANCH   1  11
ATOM     11  N   UNL     1      51.022  54.645  21.313  1.00  0.00    -0.324 N 
ATOM     12  H   UNL     1      51.437  54.803  22.255  1.00  0.00    +0.347 HD
ATOM     13  H   UNL     1      50.026  54.475  21.482  1.00  0.00    +0.347 HD
BRANCH  11  14
ATOM     14  C   UNL     1      51.264  55.990  20.596  1.00  0.00    +0.296 C 
BRANCH  14  15
ATOM     15  C   UNL     1      49.960  56.820  20.532  1.00  0.00    +0.053 C 
ATOM     16  C   UNL     1      49.611  57.536  21.843  1.00  0.00    +0.014 C 
ATOM     17  C   UNL     1      48.766  55.984  20.065  1.00  0.00    +0.014 C 
ENDBRANCH  14  15
BRANCH  14  18
ATOM     18  C   UNL     1      52.353  56.762  21.354  1.00  0.00    +0.364 C 
ATOM     19  O   UNL     1      52.726  56.387  22.463  1.00  0.00    -0.245 OA
BRANCH  18  20
ATOM     20  O   UNL     1      52.787  57.845  20.670  1.00  0.00    -0.465 OA
ATOM     21  C   UNL     1      54.208  58.012  20.677  1.00  0.00    +0.282 C 
ENDBRANCH  18  20
ENDBRANCH  14  18
ENDBRANCH  11  14
ENDBRANCH   1  11
TORSDOF 8
ENDMDL
MODEL 2
REMARK VINA RESULT:    -5.881      3.137      6.415
REMARK INTER + INTRA:          -9.368
REMARK INTER:                  -8.321
REMARK INTRA:                  -1.047
REMARK UNBOUND:                -0.736
REMARK SMILES CC[C@@H](C)NC(=O)[C@H](C)[NH2+][C@H](C(=O)OC)C(C)C
REMARK SMILES IDX 8 1 9 2 6 3 5 4 7 5 3 7 4 8 2 9 1 10 10 11 11 14 16 15 17 16
REMARK SMILES IDX 18 17 12 18 13 19 14 20 15 21
REMARK H PARENT 5 6 10 12 10 13
ROOT
ATOM      1  C   UNL     1      48.988  51.926  17.028  1.00  0.00    +0.270 C 
ATOM      2  C   UNL     1      47.488  51.709  16.895  1.00  0.00    +0.086 C 
ENDROOT
BRANCH   1   3
ATOM      3  C   UNL     1      49.317  53.073  18.004  1.00  0.00    +0.278 C 
ATOM      4  N   UNL     1      50.525  52.974  18.658  1.00  0.00    -0.349 N 
ATOM      5  O   UNL     1      48.526  53.997  18.179  1.00  0.00    -0.268 OA
ATOM      6  H   UNL     1      51.208  52.282  18.371  1.00  0.00    +0.163 HD
BRANCH   4   7
ATOM      7  C   UNL     1      51.000  54.027  19.557  1.00  0.00    +0.078 C 
ATOM      8  C   UNL     1      52.524  54.125  19.511  1.00  0.00    +0.031 C 
BRANCH   7   9
ATOM      9  C   UNL     1      50.453  53.831  20.981  1.00  0.00    +0.021 C 
ATOM     10  C   UNL     1      51.034  52.645  21.742  1.00  0.00    +0.006 C 
ENDBRANCH   7   9
ENDBRANCH   4   7
ENDBRANCH   1   3
BRANCH   1  11
ATOM     11  N   UNL     1      49.667  50.612  17.376  1.00  0.00    -0.324 N 
ATOM     12  H   UNL     1      50.657  50.850  17.591  1.00  0.00    +0.347 HD
ATOM     13  H   UNL     1      49.709  49.997  16.557  1.00  0.00    +0.347 HD
BRANCH  11  14
ATOM     14  C   UNL     1      49.207  49.858  18.641  1.00  0.00    +0.296 C 
BRANCH  14  15
ATOM     15  C   UNL     1      48.501  48.534  18.264  1.00  0.00    +0.053 C 
ATOM     16  C   UNL     1      48.630  48.158  16.783  1.00  0.00    +0.014 C 
ATOM     17  C   UNL     1      47.027  48.528  18.675  1.00  0.00    +0.014 C 
ENDBRANCH  14  15
BRANCH  14  18
ATOM     18  C   UNL     1      50.434  49.580  19.520  1.00  0.00    +0.364 C 
ATOM     19  O   UNL     1      50.335  48.877  20.523  1.00  0.00    -0.245 OA
BRANCH  18  20
ATOM     20  O   UNL     1      51.546  50.199  19.063  1.00  0.00    -0.465 OA
ATOM     21  C   UNL     1      52.731  49.896  19.805  1.00  0.00    +0.282 C 
ENDBRANCH  18  20
ENDBRANCH  14  18
ENDBRANCH  11  14
ENDBRANCH   1  11
TORSDOF 8
ENDMDL
MODEL 3
REMARK VINA RESULT:    -5.869      3.312      5.007
REMARK INTER + INTRA:          -9.350
REMARK INTER:                  -8.164
REMARK INTRA:                  -1.186
REMARK UNBOUND:                -0.736
REMARK SMILES CC[C@@H](C)NC(=O)[C@H](C)[NH2+][C@H](C(=O)OC)C(C)C
REMARK SMILES IDX 8 1 9 2 6 3 5 4 7 5 3 7 4 8 2 9 1 10 10 11 11 14 16 15 17 16
REMARK SMILES IDX 18 17 12 18 13 19 14 20 15 21
REMARK H PARENT 5 6 10 12 10 13
ROOT
ATOM      1  C   UNL     1      51.724  50.395  19.025  1.00  0.00    +0.270 C 
ATOM      2  C   UNL     1      52.480  50.575  20.333  1.00  0.00    +0.086 C 
ENDROOT
BRANCH   1   3
ATOM      3  C   UNL     1      50.497  49.476  19.193  1.00  0.00    +0.278 C 
ATOM      4  N   UNL     1      49.807  49.184  18.037  1.00  0.00    -0.349 N 
ATOM      5  O   UNL     1      50.170  49.060  20.301  1.00  0.00    -0.268 OA
ATOM      6  H   UNL     1      50.197  49.421  17.133  1.00  0.00    +0.163 HD
BRANCH   4   7
ATOM      7  C   UNL     1      48.667  48.264  18.037  1.00  0.00    +0.078 C 
ATOM      8  C   UNL     1      48.667  47.411  16.769  1.00  0.00    +0.031 C 
BRANCH   7   9
ATOM      9  C   UNL     1      47.345  49.020  18.253  1.00  0.00    +0.021 C 
ATOM     10  C   UNL     1      46.166  48.155  18.682  1.00  0.00    +0.006 C 
ENDBRANCH   7   9
ENDBRANCH   4   7
ENDBRANCH   1   3
BRANCH   1  11
ATOM     11  N   UNL     1      51.394  51.756  18.433  1.00  0.00    -0.324 N 
ATOM     12  H   UNL     1      51.036  51.571  17.473  1.00  0.00    +0.347 HD
ATOM     13  H   UNL     1      52.245  52.311  18.301  1.00  0.00    +0.347 HD
BRANCH  11  14
ATOM     14  C   UNL     1      50.259  52.581  19.074  1.00  0.00    +0.296 C 
BRANCH  14  15
ATOM     15  C   UNL     1      50.819  53.865  19.732  1.00  0.00    +0.053 C 
ATOM     16  C   UNL     1      52.215  54.263  19.235  1.00  0.00    +0.014 C 
ATOM     17  C   UNL     1      50.818  53.779  21.260  1.00  0.00    +0.014 C 
ENDBRANCH  14  15
BRANCH  14  18
ATOM     18  C   UNL     1      49.237  52.940  17.986  1.00  0.00    +0.364 C 
ATOM     19  O   UNL     1      48.646  54.016  18.016  1.00  0.00    -0.245 OA
BRANCH  18  20
ATOM     20  O   UNL     1      49.087  51.952  17.075  1.00  0.00    -0.465 OA
ATOM     21  C   UNL     1      47.983  52.138  16.186  1.00  0.00    +0.282 C 
ENDBRANCH  18  20
ENDBRANCH  14  18
ENDBRANCH  11  14
ENDBRANCH   1  11
TORSDOF 8
ENDMDL
MODEL 4
REMARK VINA RESULT:    -5.857      3.657      7.743
REMARK INTER + INTRA:          -9.332
REMARK INTER:                  -8.727
REMARK INTRA:                  -0.606
REMARK UNBOUND:                -0.736
REMARK SMILES CC[C@@H](C)NC(=O)[C@H](C)[NH2+][C@H](C(=O)OC)C(C)C
REMARK SMILES IDX 8 1 9 2 6 3 5 4 7 5 3 7 4 8 2 9 1 10 10 11 11 14 16 15 17 16
REMARK SMILES IDX 18 17 12 18 13 19 14 20 15 21
REMARK H PARENT 5 6 10 12 10 13
ROOT
ATOM      1  C   UNL     1      49.465  49.475  19.058  1.00  0.00    +0.270 C 
ATOM      2  C   UNL     1      50.397  48.915  20.122  1.00  0.00    +0.086 C 
ENDROOT
BRANCH   1   3
ATOM      3  C   UNL     1      49.851  50.914  18.658  1.00  0.00    +0.278 C 
ATOM      4  N   UNL     1      50.562  51.625  19.600  1.00  0.00    -0.349 N 
ATOM      5  O   UNL     1      49.519  51.374  17.569  1.00  0.00    -0.268 OA
ATOM      6  H   UNL     1      50.944  51.159  20.415  1.00  0.00    +0.163 HD
BRANCH   4   7
ATOM      7  C   UNL     1      51.058  52.976  19.326  1.00  0.00    +0.078 C 
ATOM      8  C   UNL     1      52.495  52.924  18.808  1.00  0.00    +0.031 C 
BRANCH   7   9
ATOM      9  C   UNL     1      50.894  53.886  20.555  1.00  0.00    +0.021 C 
ATOM     10  C   UNL     1      51.517  53.359  21.842  1.00  0.00    +0.006 C 
ENDBRANCH   7   9
ENDBRANCH   4   7
ENDBRANCH   1   3
BRANCH   1  11
ATOM     11  N   UNL     1      49.390  48.512  17.885  1.00  0.00    -0.324 N 
ATOM     12  H   UNL     1      49.951  47.681  18.161  1.00  0.00    +0.347 HD
ATOM     13  H   UNL     1      49.867  48.900  17.065  1.00  0.00    +0.347 HD
BRANCH  11  14
ATOM     14  C   UNL     1      48.020  47.902  17.521  1.00  0.00    +0.296 C 
BRANCH  14  15
ATOM     15  C   UNL     1      46.876  48.651  18.246  1.00  0.00    +0.053 C 
ATOM     16  C   UNL     1      45.770  47.733  18.780  1.00  0.00    +0.014 C 
ATOM     17  C   UNL     1      46.263  49.750  17.375  1.00  0.00    +0.014 C 
ENDBRANCH  14  15
BRANCH  14  18
ATOM     18  C   UNL     1      47.834  47.985  15.999  1.00  0.00    +0.364 C 
ATOM     19  O   UNL     1      46.869  47.450  15.459  1.00  0.00    -0.245 OA
BRANCH  18  20
ATOM     20  O   UNL     1      48.834  48.666  15.395  1.00  0.00    -0.465 OA
ATOM     21  C   UNL     1      48.386  49.671  14.480  1.00  0.00    +0.282 C 
ENDBRANCH  18  20
ENDBRANCH  14  18
ENDBRANCH  11  14
ENDBRANCH   1  11
TORSDOF 8
ENDMDL
MODEL 5
REMARK VINA RESULT:    -5.671      2.162      3.228
REMARK INTER + INTRA:          -9.059
REMARK INTER:                  -7.903
REMARK INTRA:                  -1.157
REMARK UNBOUND:                -0.736
REMARK SMILES CC[C@@H](C)NC(=O)[C@H](C)[NH2+][C@H](C(=O)OC)C(C)C
REMARK SMILES IDX 8 1 9 2 6 3 5 4 7 5 3 7 4 8 2 9 1 10 10 11 11 14 16 15 17 16
REMARK SMILES IDX 18 17 12 18 13 19 14 20 15 21
REMARK H PARENT 5 6 10 12 10 13
ROOT
ATOM      1  C   UNL     1      51.913  52.478  20.343  1.00  0.00    +0.270 C 
ATOM      2  C   UNL     1      51.415  52.239  21.761  1.00  0.00    +0.086 C 
ENDROOT
BRANCH   1   3
ATOM      3  C   UNL     1      51.497  51.340  19.389  1.00  0.00    +0.278 C 
ATOM      4  N   UNL     1      50.158  51.290  19.067  1.00  0.00    -0.349 N 
ATOM      5  O   UNL     1      52.325  50.535  18.972  1.00  0.00    -0.268 OA
ATOM      6  H   UNL     1      49.543  52.058  19.309  1.00  0.00    +0.163 HD
BRANCH   4   7
ATOM      7  C   UNL     1      49.635  50.308  18.114  1.00  0.00    +0.078 C 
ATOM      8  C   UNL     1      48.719  50.985  17.096  1.00  0.00    +0.031 C 
BRANCH   7   9
ATOM      9  C   UNL     1      48.961  49.134  18.842  1.00  0.00    +0.021 C 
ATOM     10  C   UNL     1      47.488  48.925  18.512  1.00  0.00    +0.006 C 
ENDBRANCH   7   9
ENDBRANCH   4   7
ENDBRANCH   1   3
BRANCH   1  11
ATOM     11  N   UNL     1      51.481  53.858  19.875  1.00  0.00    -0.324 N 
ATOM     12  H   UNL     1      50.947  53.707  18.995  1.00  0.00    +0.347 HD
ATOM     13  H   UNL     1      52.294  54.420  19.604  1.00  0.00    +0.347 HD
BRANCH  11  14
ATOM     14  C   UNL     1      50.493  54.656  20.750  1.00  0.00    +0.296 C 
BRANCH  14  15
ATOM     15  C   UNL     1      51.142  55.969  21.252  1.00  0.00    +0.053 C 
ATOM     16  C   UNL     1      52.219  56.530  20.316  1.00  0.00    +0.014 C 
ATOM     17  C   UNL     1      51.706  55.829  22.667  1.00  0.00    +0.014 C 
ENDBRANCH  14  15
BRANCH  14  18
ATOM     18  C   UNL     1      49.238  54.963  19.921  1.00  0.00    +0.364 C 
ATOM     19  O   UNL     1      48.534  55.932  20.190  1.00  0.00    -0.245 OA
BRANCH  18  20
ATOM     20  O   UNL     1      49.037  54.056  18.938  1.00  0.00    -0.465 OA
ATOM     21  C   UNL     1      48.594  54.622  17.701  1.00  0.00    +0.282 C 
ENDBRANCH  18  20
ENDBRANCH  14  18
ENDBRANCH  11  14
ENDBRANCH   1  11
TORSDOF 8
ENDMDL
