MODEL 1
REMARK VINA RESULT:    -7.283      0.000      0.000
REMARK INTER + INTRA:         -10.400
REMARK INTER:                  -9.625
REMARK INTRA:                  -0.775
REMARK UNBOUND:                -0.775
REMARK SMILES C[C@@H](CO)Nc1ccc(C(F)(F)F)cc1[N+](=O)[O-]
REMARK SMILES IDX 1 1 2 2 3 3 4 4 5 6 6 8 7 9 15 10 8 11 14 12 9 13 16 14
REMARK SMILES IDX 17 15 18 16 10 17 11 18 12 19 13 20
REMARK H PARENT 4 5 5 7
ROOT
ATOM      1  C   UNL     1      52.721  53.462  19.094  1.00  0.00    +0.033 C 
ATOM      2  C   UNL     1      51.805  52.405  19.702  1.00  0.00    +0.101 C 
ENDROOT
BRANCH   2   3
ATOM      3  C   UNL     1      52.518  51.137  20.221  1.00  0.00    +0.180 C 
BRANCH   3   4
ATOM      4  O   UNL     1      52.414  50.938  21.628  1.00  0.00    -0.394 OA
ATOM      5  H   UNL     1      52.809  50.073  21.835  1.00  0.00    +0.210 HD
ENDBRANCH   3   4
ENDBRANCH   2   3
BRANCH   2   6
ATOM      6  N   UNL     1      50.841  52.991  20.649  1.00  0.00    -0.375 N 
ATOM      7  H   UNL     1      51.087  52.738  21.615  1.00  0.00    +0.161 HD
BRANCH   6   8
ATOM      8  C   UNL     1      50.205  54.228  20.597  1.00  0.00    +0.113 A 
ATOM      9  C   UNL     1      49.031  54.444  19.866  1.00  0.00    +0.033 A 
ATOM     10  C   UNL     1      50.626  55.317  21.402  1.00  0.00    +0.292 A 
ATOM     11  C   UNL     1      48.347  55.671  19.879  1.00  0.00    +0.016 A 
ATOM     12  C   UNL     1      49.946  56.554  21.428  1.00  0.00    +0.101 A 
ATOM     13  C   UNL     1      48.800  56.743  20.650  1.00  0.00    +0.062 A 
BRANCH  10  14
ATOM     14  N   UNL     1      51.815  55.203  22.253  1.00  0.00    +0.064 N 
ATOM     15  O   UNL     1      52.628  56.141  22.245  1.00  0.00    -0.258 OA
ATOM     16  O   UNL     1      51.926  54.181  22.947  1.00  0.00    -0.258 OA
ENDBRANCH  10  14
BRANCH  13  17
ATOM     17  C   UNL     1      48.051  58.052  20.681  1.00  0.00    +0.416 C 
ATOM     18  F   UNL     1      48.206  58.763  19.531  1.00  0.00    -0.166 F 
ATOM     19  F   UNL     1      46.709  57.886  20.844  1.00  0.00    -0.166 F 
ATOM     20  F   UNL     1      48.449  58.875  21.690  1.00  0.00    -0.166 F 
ENDBRANCH  13  17
ENDBRANCH   6   8
ENDBRANCH   2   6
TORSDOF 6
ENDMDL
MODEL 2
REMARK VINA RESULT:    -7.209      1.112      1.793
REMARK INTER + INTRA:         -10.301
REMARK INTER:                  -9.587
REMARK INTRA:                  -0.715
REMARK UNBOUND:                -0.775
REMARK SMILES C[C@@H](CO)Nc1ccc(C(F)(F)F)cc1[N+](=O)[O-]
REMARK SMILES IDX 1 1 2 2 3 3 4 4 5 6 6 8 7 9 15 10 8 11 14 12 9 13 16 14
REMARK SMILES IDX 17 15 18 16 10 17 11 18 12 19 13 20
REMARK H PARENT 4 5 5 7
ROOT
ATOM      1  C   UNL     1      50.800  51.434  18.946  1.00  0.00    +0.033 C 
ATOM      2  C   UNL     1      51.683  52.435  19.684  1.00  0.00    +0.101 C 
ENDROOT
BRANCH   2   3
ATOM      3  C   UNL     1      52.543  53.347  18.780  1.00  0.00    +0.180 C 
BRANCH   3   4
ATOM      4  O   UNL     1      53.148  52.678  17.676  1.00  0.00    -0.394 OA
ATOM      5  H   UNL     1      53.968  52.262  17.997  1.00  0.00    +0.210 HD
ENDBRANCH   3   4
ENDBRANCH   2   3
BRANCH   2   6
ATOM      6  N   UNL     1      50.943  53.149  20.738  1.00  0.00    -0.375 N 
ATOM      7  H   UNL     1      51.417  53.043  21.644  1.00  0.00    +0.161 HD
BRANCH   6   8
ATOM      8  C   UNL     1      50.262  54.361  20.662  1.00  0.00    +0.113 A 
ATOM      9  C   UNL     1      49.082  54.519  19.928  1.00  0.00    +0.033 A 
ATOM     10  C   UNL     1      50.644  55.480  21.445  1.00  0.00    +0.292 A 
ATOM     11  C   UNL     1      48.353  55.721  19.917  1.00  0.00    +0.016 A 
ATOM     12  C   UNL     1      49.920  56.692  21.447  1.00  0.00    +0.101 A 
ATOM     13  C   UNL     1      48.768  56.823  20.667  1.00  0.00    +0.062 A 
BRANCH  10  14
ATOM     14  N   UNL     1      51.837  55.426  22.296  1.00  0.00    +0.064 N 
ATOM     15  O   UNL     1      51.953  54.466  23.075  1.00  0.00    -0.258 OA
ATOM     16  O   UNL     1      52.670  56.335  22.171  1.00  0.00    -0.258 OA
ENDBRANCH  10  14
BRANCH  13  17
ATOM     17  C   UNL     1      47.971  58.105  20.673  1.00  0.00    +0.416 C 
ATOM     18  F   UNL     1      46.634  57.880  20.787  1.00  0.00    -0.166 F 
ATOM     19  F   UNL     1      48.304  58.927  21.707  1.00  0.00    -0.166 F 
ATOM     20  F   UNL     1      48.134  58.845  19.542  1.00  0.00    -0.166 F 
ENDBRANCH  13  17
ENDBRANCH   6   8
ENDBRANCH   2   6
TORSDOF 6
ENDMDL
MODEL 3
REMARK VINA RESULT:    -7.033      5.591      7.038
REMARK INTER + INTRA:         -10.070
REMARK INTER:                  -9.283
REMARK INTRA:                  -0.787
REMARK UNBOUND:                -0.775
REMARK SMILES C[C@@H](CO)Nc1ccc(C(F)(F)F)cc1[N+](=O)[O-]
REMARK SMILES IDX 1 1 2 2 3 3 4 4 5 6 6 8 7 9 15 10 8 11 14 12 9 13 16 14
REMARK SMILES IDX 17 15 18 16 10 17 11 18 12 19 13 20
REMARK H PARENT 4 5 5 7
ROOT
ATOM      1  C   UNL     1      50.028  53.392  19.561  1.00  0.00    +0.033 C 
ATOM      2  C   UNL     1      50.984  53.094  18.411  1.00  0.00    +0.101 C 
ENDROOT
BRANCH   2   3
ATOM      3  C   UNL     1      52.484  53.263  18.741  1.00  0.00    +0.180 C 
BRANCH   3   4
ATOM      4  O   UNL     1      53.365  52.824  17.711  1.00  0.00    -0.394 OA
ATOM      5  H   UNL     1      53.691  53.613  17.244  1.00  0.00    +0.210 HD
ENDBRANCH   3   4
ENDBRANCH   2   3
BRANCH   2   6
ATOM      6  N   UNL     1      50.650  51.831  17.731  1.00  0.00    -0.375 N 
ATOM      7  H   UNL     1      51.503  51.294  17.531  1.00  0.00    +0.161 HD
BRANCH   6   8
ATOM      8  C   UNL     1      49.559  50.990  17.933  1.00  0.00    +0.113 A 
ATOM      9  C   UNL     1      48.390  51.073  17.169  1.00  0.00    +0.033 A 
ATOM     10  C   UNL     1      49.619  49.896  18.833  1.00  0.00    +0.292 A 
ATOM     11  C   UNL     1      47.322  50.172  17.321  1.00  0.00    +0.016 A 
ATOM     12  C   UNL     1      48.556  48.981  18.994  1.00  0.00    +0.101 A 
ATOM     13  C   UNL     1      47.387  49.123  18.241  1.00  0.00    +0.062 A 
BRANCH  10  14
ATOM     14  N   UNL     1      50.810  49.670  19.658  1.00  0.00    +0.064 N 
ATOM     15  O   UNL     1      51.922  49.753  19.111  1.00  0.00    -0.258 OA
ATOM     16  O   UNL     1      50.635  49.430  20.862  1.00  0.00    -0.258 OA
ENDBRANCH  10  14
BRANCH  13  17
ATOM     17  C   UNL     1      46.249  48.143  18.386  1.00  0.00    +0.416 C 
ATOM     18  F   UNL     1      45.045  48.702  18.086  1.00  0.00    -0.166 F 
ATOM     19  F   UNL     1      46.378  47.062  17.566  1.00  0.00    -0.166 F 
ATOM     20  F   UNL     1      46.129  47.642  19.646  1.00  0.00    -0.166 F 
ENDBRANCH  13  17
ENDBRANCH   6   8
ENDBRANCH   2   6
TORSDOF 6
ENDMDL
MODEL 4
REMARK VINA RESULT:    -6.563      6.865      8.404
REMARK INTER + INTRA:          -9.448
REMARK INTER:                  -8.777
REMARK INTRA:                  -0.671
REMARK UNBOUND:                -0.775
REMARK SMILES C[C@@H](CO)Nc1ccc(C(F)(F)F)cc1[N+](=O)[O-]
REMARK SMILES IDX 1 1 2 2 3 3 4 4 5 6 6 8 7 9 15 10 8 11 14 12 9 13 16 14
REMARK SMILES IDX 17 15 18 16 10 17 11 18 12 19 13 20
REMARK H PARENT 4 5 5 7
ROOT
ATOM      1  C   UNL     1      49.657  52.305  18.040  1.00  0.00    +0.033 C 
ATOM      2  C   UNL     1      50.858  51.472  17.604  1.00  0.00    +0.101 C 
ENDROOT
BRANCH   2   3
ATOM      3  C   UNL     1      52.183  51.796  18.329  1.00  0.00    +0.180 C 
BRANCH   3   4
ATOM      4  O   UNL     1      53.095  52.579  17.564  1.00  0.00    -0.394 OA
ATOM      5  H   UNL     1      53.929  52.633  18.064  1.00  0.00    +0.210 HD
ENDBRANCH   3   4
ENDBRANCH   2   3
BRANCH   2   6
ATOM      6  N   UNL     1      50.536  50.036  17.538  1.00  0.00    -0.375 N 
ATOM      7  H   UNL     1      51.278  49.481  17.984  1.00  0.00    +0.161 HD
BRANCH   6   8
ATOM      8  C   UNL     1      49.298  49.410  17.653  1.00  0.00    +0.113 A 
ATOM      9  C   UNL     1      48.722  49.095  18.888  1.00  0.00    +0.033 A 
ATOM     10  C   UNL     1      48.473  49.180  16.522  1.00  0.00    +0.292 A 
ATOM     11  C   UNL     1      47.437  48.536  19.003  1.00  0.00    +0.016 A 
ATOM     12  C   UNL     1      47.180  48.622  16.623  1.00  0.00    +0.101 A 
ATOM     13  C   UNL     1      46.656  48.283  17.874  1.00  0.00    +0.062 A 
BRANCH  10  14
ATOM     14  N   UNL     1      48.942  49.511  15.173  1.00  0.00    +0.064 N 
ATOM     15  O   UNL     1      50.020  49.024  14.796  1.00  0.00    -0.258 OA
ATOM     16  O   UNL     1      48.221  50.244  14.480  1.00  0.00    -0.258 OA
ENDBRANCH  10  14
BRANCH  13  17
ATOM     17  C   UNL     1      45.268  47.705  18.000  1.00  0.00    +0.416 C 
ATOM     18  F   UNL     1      45.052  47.147  19.222  1.00  0.00    -0.166 F 
ATOM     19  F   UNL     1      44.291  48.640  17.835  1.00  0.00    -0.166 F 
ATOM     20  F   UNL     1      45.007  46.729  17.088  1.00  0.00    -0.166 F 
ENDBRANCH  13  17
ENDBRANCH   6   8
ENDBRANCH   2   6
TORSDOF 6
ENDMDL
MODEL 5
REMARK VINA RESULT:    -6.516      2.735      3.312
REMARK INTER + INTRA:          -9.386
REMARK INTER:                  -8.705
REMARK INTRA:                  -0.682
REMARK UNBOUND:                -0.775
REMARK SMILES C[C@@H](CO)Nc1ccc(C(F)(F)F)cc1[N+](=O)[O-]
REMARK SMILES IDX 1 1 2 2 3 3 4 4 5 6 6 8 7 9 15 10 8 11 14 12 9 13 16 14
REMARK SMILES IDX 17 15 18 16 10 17 11 18 12 19 13 20
REMARK H PARENT 4 5 5 7
ROOT
ATOM      1  C   UNL     1      50.081  50.061  18.988  1.00  0.00    +0.033 C 
ATOM      2  C   UNL     1      50.922  51.216  19.519  1.00  0.00    +0.101 C 
ENDROOT
BRANCH   2   3
ATOM      3  C   UNL     1      52.429  50.916  19.674  1.00  0.00    +0.180 C 
BRANCH   3   4
ATOM      4  O   UNL     1      52.821  50.538  20.992  1.00  0.00    -0.394 OA
ATOM      5  H   UNL     1      52.376  51.138  21.615  1.00  0.00    +0.210 HD
ENDBRANCH   3   4
ENDBRANCH   2   3
BRANCH   2   6
ATOM      6  N   UNL     1      50.623  52.479  18.824  1.00  0.00    -0.375 N 
ATOM      7  H   UNL     1      50.316  52.296  17.860  1.00  0.00    +0.161 HD
BRANCH   6   8
ATOM      8  C   UNL     1      50.039  53.638  19.328  1.00  0.00    +0.113 A 
ATOM      9  C   UNL     1      50.548  54.318  20.441  1.00  0.00    +0.033 A 
ATOM     10  C   UNL     1      48.972  54.288  18.657  1.00  0.00    +0.292 A 
ATOM     11  C   UNL     1      50.005  55.531  20.900  1.00  0.00    +0.016 A 
ATOM     12  C   UNL     1      48.420  55.508  19.104  1.00  0.00    +0.101 A 
ATOM     13  C   UNL     1      48.929  56.134  20.245  1.00  0.00    +0.062 A 
BRANCH  10  14
ATOM     14  N   UNL     1      48.382  53.703  17.449  1.00  0.00    +0.064 N 
ATOM     15  O   UNL     1      48.286  54.421  16.440  1.00  0.00    -0.258 OA
ATOM     16  O   UNL     1      48.031  52.514  17.502  1.00  0.00    -0.258 OA
ENDBRANCH  10  14
BRANCH  13  17
ATOM     17  C   UNL     1      48.363  57.448  20.724  1.00  0.00    +0.416 C 
ATOM     18  F   UNL     1      48.707  58.484  19.912  1.00  0.00    -0.166 F 
ATOM     19  F   UNL     1      47.002  57.447  20.778  1.00  0.00    -0.166 F 
ATOM     20  F   UNL     1      48.785  57.791  21.972  1.00  0.00    -0.166 F 
ENDBRANCH  13  17
ENDBRANCH   6   8
ENDBRANCH   2   6
TORSDOF 6
ENDMDL
