MODEL 1
REMARK VINA RESULT:    -8.124      0.000      0.000
REMARK INTER + INTRA:         -11.366
REMARK INTER:                 -10.498
REMARK INTRA:                  -0.868
REMARK UNBOUND:                -0.868
REMARK SMILES C[C@H](CCc1ccco1)Nc1ccc2c(c1)C(=O)NC2=O
REMARK SMILES IDX 1 1 2 2 3 3 4 4 5 5 6 6 9 7 7 8 8 9 10 10 11 12 12 13 16 14
REMARK SMILES IDX 13 15 15 16 14 17 17 18 20 19 18 20 19 21 21 22
REMARK H PARENT 10 11 19 23
ROOT
ATOM      1  C   UNL     1      52.086  51.445  18.258  1.00  0.00    +0.031 C 
ATOM      2  C   UNL     1      51.155  51.830  19.408  1.00  0.00    +0.076 C 
ENDROOT
BRANCH   2   3
ATOM      3  C   UNL     1      50.499  50.593  20.055  1.00  0.00    +0.032 C 
BRANCH   3   4
ATOM      4  C   UNL     1      50.256  49.417  19.102  1.00  0.00    +0.077 C 
BRANCH   4   5
ATOM      5  C   UNL     1      48.860  49.423  18.592  1.00  0.00    +0.103 A 
ATOM      6  C   UNL     1      47.754  48.639  18.844  1.00  0.00    +0.045 A 
ATOM      7  O   UNL     1      48.553  50.386  17.679  1.00  0.00    -0.469 OA
ATOM      8  C   UNL     1      46.711  49.154  18.038  1.00  0.00    +0.042 A 
ATOM      9  C   UNL     1      47.246  50.216  17.348  1.00  0.00    +0.195 A 
ENDBRANCH   4   5
ENDBRANCH   3   4
ENDBRANCH   2   3
BRANCH   2  10
ATOM     10  N   UNL     1      50.116  52.747  18.925  1.00  0.00    -0.383 N 
ATOM     11  H   UNL     1      49.253  52.284  18.651  1.00  0.00    +0.160 HD
BRANCH  10  12
ATOM     12  C   UNL     1      49.868  53.988  19.515  1.00  0.00    +0.035 A 
ATOM     13  C   UNL     1      48.672  54.725  19.326  1.00  0.00    +0.026 A 
ATOM     14  C   UNL     1      50.807  54.468  20.444  1.00  0.00    +0.040 A 
ATOM     15  C   UNL     1      48.424  55.934  19.994  1.00  0.00    +0.017 A 
ATOM     16  C   UNL     1      50.548  55.660  21.091  1.00  0.00    +0.055 A 
ATOM     17  C   UNL     1      49.389  56.376  20.870  1.00  0.00    +0.053 A 
ATOM     18  C   UNL     1      51.335  56.393  22.081  1.00  0.00    +0.259 C 
ATOM     19  C   UNL     1      49.438  57.567  21.716  1.00  0.00    +0.258 C 
ATOM     20  O   UNL     1      52.418  56.056  22.512  1.00  0.00    -0.269 OA
ATOM     21  N   UNL     1      50.614  57.503  22.398  1.00  0.00    -0.288 N 
ATOM     22  O   UNL     1      48.582  58.427  21.777  1.00  0.00    -0.269 OA
ATOM     23  H   UNL     1      50.917  58.199  23.061  1.00  0.00    +0.173 HD
ENDBRANCH  10  12
ENDBRANCH   2  10
TORSDOF 5
ENDMDL
MODEL 2
REMARK VINA RESULT:    -7.744      3.492      8.098
REMARK INTER + INTRA:         -10.875
REMARK INTER:                 -10.355
REMARK INTRA:                  -0.520
REMARK UNBOUND:                -0.868
REMARK SMILES C[C@H](CCc1ccco1)Nc1ccc2c(c1)C(=O)NC2=O
REMARK SMILES IDX 1 1 2 2 3 3 4 4 5 5 6 6 9 7 7 8 8 9 10 10 11 12 12 13 16 14
REMARK SMILES IDX 13 15 15 16 14 17 17 18 20 19 18 20 19 21 21 22
REMARK H PARENT 10 11 19 23
ROOT
ATOM      1  C   UNL     1      51.168  50.953  17.724  1.00  0.00    +0.031 C 
ATOM      2  C   UNL     1      50.226  50.441  18.814  1.00  0.00    +0.076 C 
ENDROOT
BRANCH   2   3
ATOM      3  C   UNL     1      50.910  50.405  20.196  1.00  0.00    +0.032 C 
BRANCH   3   4
ATOM      4  C   UNL     1      52.211  51.209  20.293  1.00  0.00    +0.077 C 
BRANCH   4   5
ATOM      5  C   UNL     1      51.968  52.547  20.893  1.00  0.00    +0.103 A 
ATOM      6  C   UNL     1      51.549  52.968  22.138  1.00  0.00    +0.045 A 
ATOM      7  O   UNL     1      52.190  53.622  20.086  1.00  0.00    -0.469 OA
ATOM      8  C   UNL     1      51.514  54.382  22.087  1.00  0.00    +0.042 A 
ATOM      9  C   UNL     1      51.912  54.731  20.819  1.00  0.00    +0.195 A 
ENDBRANCH   4   5
ENDBRANCH   3   4
ENDBRANCH   2   3
BRANCH   2  10
ATOM     10  N   UNL     1      49.737  49.102  18.465  1.00  0.00    -0.383 N 
ATOM     11  H   UNL     1      49.966  48.389  19.154  1.00  0.00    +0.160 HD
BRANCH  10  12
ATOM     12  C   UNL     1      48.485  48.878  17.890  1.00  0.00    +0.035 A 
ATOM     13  C   UNL     1      48.199  49.084  16.518  1.00  0.00    +0.026 A 
ATOM     14  C   UNL     1      47.492  48.296  18.698  1.00  0.00    +0.040 A 
ATOM     15  C   UNL     1      46.949  48.778  15.959  1.00  0.00    +0.017 A 
ATOM     16  C   UNL     1      46.267  48.002  18.132  1.00  0.00    +0.055 A 
ATOM     17  C   UNL     1      46.001  48.239  16.798  1.00  0.00    +0.053 A 
ATOM     18  C   UNL     1      45.065  47.415  18.722  1.00  0.00    +0.259 C 
ATOM     19  C   UNL     1      44.629  47.806  16.538  1.00  0.00    +0.258 C 
ATOM     20  O   UNL     1      44.939  47.082  19.882  1.00  0.00    -0.269 OA
ATOM     21  N   UNL     1      44.147  47.333  17.720  1.00  0.00    -0.288 N 
ATOM     22  O   UNL     1      44.059  47.870  15.467  1.00  0.00    -0.269 OA
ATOM     23  H   UNL     1      43.217  46.965  17.840  1.00  0.00    +0.173 HD
ENDBRANCH  10  12
ENDBRANCH   2  10
TORSDOF 5
ENDMDL
MODEL 3
REMARK VINA RESULT:    -7.621      2.847      7.991
REMARK INTER + INTRA:         -10.717
REMARK INTER:                 -10.121
REMARK INTRA:                  -0.596
REMARK UNBOUND:                -0.868
REMARK SMILES C[C@H](CCc1ccco1)Nc1ccc2c(c1)C(=O)NC2=O
REMARK SMILES IDX 1 1 2 2 3 3 4 4 5 5 6 6 9 7 7 8 8 9 10 10 11 12 12 13 16 14
REMARK SMILES IDX 13 15 15 16 14 17 17 18 20 19 18 20 19 21 21 22
REMARK H PARENT 10 11 19 23
ROOT
ATOM      1  C   UNL     1      51.696  51.038  18.036  1.00  0.00    +0.031 C 
ATOM      2  C   UNL     1      50.187  51.259  18.148  1.00  0.00    +0.076 C 
ENDROOT
BRANCH   2   3
ATOM      3  C   UNL     1      49.843  52.381  19.149  1.00  0.00    +0.032 C 
BRANCH   3   4
ATOM      4  C   UNL     1      49.125  53.591  18.541  1.00  0.00    +0.077 C 
BRANCH   4   5
ATOM      5  C   UNL     1      49.175  54.758  19.459  1.00  0.00    +0.103 A 
ATOM      6  C   UNL     1      48.389  55.880  19.613  1.00  0.00    +0.045 A 
ATOM      7  O   UNL     1      50.196  54.775  20.363  1.00  0.00    -0.469 OA
ATOM      8  C   UNL     1      48.963  56.625  20.671  1.00  0.00    +0.042 A 
ATOM      9  C   UNL     1      50.059  55.911  21.094  1.00  0.00    +0.195 A 
ENDBRANCH   4   5
ENDBRANCH   3   4
ENDBRANCH   2   3
BRANCH   2  10
ATOM     10  N   UNL     1      49.527  50.012  18.552  1.00  0.00    -0.383 N 
ATOM     11  H   UNL     1      49.573  49.828  19.552  1.00  0.00    +0.160 HD
BRANCH  10  12
ATOM     12  C   UNL     1      48.315  49.585  18.006  1.00  0.00    +0.035 A 
ATOM     13  C   UNL     1      47.942  49.794  16.655  1.00  0.00    +0.026 A 
ATOM     14  C   UNL     1      47.478  48.796  18.815  1.00  0.00    +0.040 A 
ATOM     15  C   UNL     1      46.748  49.287  16.121  1.00  0.00    +0.017 A 
ATOM     16  C   UNL     1      46.306  48.306  18.273  1.00  0.00    +0.055 A 
ATOM     17  C   UNL     1      45.948  48.547  16.961  1.00  0.00    +0.053 A 
ATOM     18  C   UNL     1      45.256  47.482  18.870  1.00  0.00    +0.259 C 
ATOM     19  C   UNL     1      44.670  47.879  16.724  1.00  0.00    +0.258 C 
ATOM     20  O   UNL     1      45.239  47.082  20.016  1.00  0.00    -0.269 OA
ATOM     21  N   UNL     1      44.330  47.275  17.895  1.00  0.00    -0.288 N 
ATOM     22  O   UNL     1      44.055  47.882  15.675  1.00  0.00    -0.269 OA
ATOM     23  H   UNL     1      43.488  46.737  18.025  1.00  0.00    +0.173 HD
ENDBRANCH  10  12
ENDBRANCH   2  10
TORSDOF 5
ENDMDL
MODEL 4
REMARK VINA RESULT:    -7.500      3.441      4.970
REMARK INTER + INTRA:         -10.561
REMARK INTER:                  -9.963
REMARK INTRA:                  -0.598
REMARK UNBOUND:                -0.868
REMARK SMILES C[C@H](CCc1ccco1)Nc1ccc2c(c1)C(=O)NC2=O
REMARK SMILES IDX 1 1 2 2 3 3 4 4 5 5 6 6 9 7 7 8 8 9 10 10 11 12 12 13 16 14
REMARK SMILES IDX 13 15 15 16 14 17 17 18 20 19 18 20 19 21 21 22
REMARK H PARENT 10 11 19 23
ROOT
ATOM      1  C   UNL     1      47.112  51.906  17.121  1.00  0.00    +0.031 C 
ATOM      2  C   UNL     1      47.879  51.091  16.079  1.00  0.00    +0.076 C 
ENDROOT
BRANCH   2   3
ATOM      3  C   UNL     1      47.520  49.592  16.143  1.00  0.00    +0.032 C 
BRANCH   3   4
ATOM      4  C   UNL     1      46.021  49.292  16.251  1.00  0.00    +0.077 C 
BRANCH   4   5
ATOM      5  C   UNL     1      45.718  48.525  17.487  1.00  0.00    +0.103 A 
ATOM      6  C   UNL     1      46.456  48.191  18.602  1.00  0.00    +0.045 A 
ATOM      7  O   UNL     1      44.456  48.020  17.592  1.00  0.00    -0.469 OA
ATOM      8  C   UNL     1      45.595  47.440  19.438  1.00  0.00    +0.042 A 
ATOM      9  C   UNL     1      44.390  47.363  18.779  1.00  0.00    +0.195 A 
ENDBRANCH   4   5
ENDBRANCH   3   4
ENDBRANCH   2   3
BRANCH   2  10
ATOM     10  N   UNL     1      49.324  51.265  16.272  1.00  0.00    -0.383 N 
ATOM     11  H   UNL     1      49.772  51.818  15.544  1.00  0.00    +0.160 HD
BRANCH  10  12
ATOM     12  C   UNL     1      49.899  51.501  17.522  1.00  0.00    +0.035 A 
ATOM     13  C   UNL     1      50.145  52.794  18.045  1.00  0.00    +0.026 A 
ATOM     14  C   UNL     1      50.128  50.390  18.354  1.00  0.00    +0.040 A 
ATOM     15  C   UNL     1      50.656  52.995  19.336  1.00  0.00    +0.017 A 
ATOM     16  C   UNL     1      50.632  50.606  19.621  1.00  0.00    +0.055 A 
ATOM     17  C   UNL     1      50.892  51.875  20.099  1.00  0.00    +0.053 A 
ATOM     18  C   UNL     1      50.973  49.659  20.681  1.00  0.00    +0.259 C 
ATOM     19  C   UNL     1      51.402  51.736  21.463  1.00  0.00    +0.258 C 
ATOM     20  O   UNL     1      50.873  48.451  20.607  1.00  0.00    -0.269 OA
ATOM     21  N   UNL     1      51.419  50.402  21.730  1.00  0.00    -0.288 N 
ATOM     22  O   UNL     1      51.737  52.651  22.188  1.00  0.00    -0.269 OA
ATOM     23  H   UNL     1      51.727  50.009  22.605  1.00  0.00    +0.173 HD
ENDBRANCH  10  12
ENDBRANCH   2  10
TORSDOF 5
ENDMDL
MODEL 5
REMARK VINA RESULT:    -7.477      3.835      7.909
REMARK INTER + INTRA:         -10.530
REMARK INTER:                 -10.053
REMARK INTRA:                  -0.477
REMARK UNBOUND:                -0.868
REMARK SMILES C[C@H](CCc1ccco1)Nc1ccc2c(c1)C(=O)NC2=O
REMARK SMILES IDX 1 1 2 2 3 3 4 4 5 5 6 6 9 7 7 8 8 9 10 10 11 12 12 13 16 14
REMARK SMILES IDX 13 15 15 16 14 17 17 18 20 19 18 20 19 21 21 22
REMARK H PARENT 10 11 19 23
ROOT
ATOM      1  C   UNL     1      47.610  58.034  17.471  1.00  0.00    +0.031 C 
ATOM      2  C   UNL     1      47.645  57.858  18.989  1.00  0.00    +0.076 C 
ENDROOT
BRANCH   2   3
ATOM      3  C   UNL     1      47.151  59.119  19.726  1.00  0.00    +0.032 C 
BRANCH   3   4
ATOM      4  C   UNL     1      47.448  60.442  19.012  1.00  0.00    +0.077 C 
BRANCH   4   5
ATOM      5  C   UNL     1      46.370  61.435  19.257  1.00  0.00    +0.103 A 
ATOM      6  C   UNL     1      46.366  62.754  19.658  1.00  0.00    +0.045 A 
ATOM      7  O   UNL     1      45.092  61.003  19.058  1.00  0.00    -0.469 OA
ATOM      8  C   UNL     1      45.008  63.151  19.707  1.00  0.00    +0.042 A 
ATOM      9  C   UNL     1      44.273  62.051  19.333  1.00  0.00    +0.195 A 
ENDBRANCH   4   5
ENDBRANCH   3   4
ENDBRANCH   2   3
BRANCH   2  10
ATOM     10  N   UNL     1      49.008  57.530  19.424  1.00  0.00    -0.383 N 
ATOM     11  H   UNL     1      49.446  58.257  19.986  1.00  0.00    +0.160 HD
BRANCH  10  12
ATOM     12  C   UNL     1      49.381  56.255  19.853  1.00  0.00    +0.035 A 
ATOM     13  C   UNL     1      49.050  55.063  19.162  1.00  0.00    +0.026 A 
ATOM     14  C   UNL     1      50.239  56.166  20.964  1.00  0.00    +0.040 A 
ATOM     15  C   UNL     1      49.504  53.803  19.582  1.00  0.00    +0.017 A 
ATOM     16  C   UNL     1      50.676  54.918  21.363  1.00  0.00    +0.055 A 
ATOM     17  C   UNL     1      50.316  53.767  20.692  1.00  0.00    +0.053 A 
ATOM     18  C   UNL     1      51.548  54.528  22.469  1.00  0.00    +0.259 C 
ATOM     19  C   UNL     1      50.956  52.642  21.372  1.00  0.00    +0.258 C 
ATOM     20  O   UNL     1      52.051  55.285  23.273  1.00  0.00    -0.269 OA
ATOM     21  N   UNL     1      51.663  53.173  22.406  1.00  0.00    -0.288 N 
ATOM     22  O   UNL     1      50.856  51.474  21.053  1.00  0.00    -0.269 OA
ATOM     23  H   UNL     1      52.209  52.625  23.053  1.00  0.00    +0.173 HD
ENDBRANCH  10  12
ENDBRANCH   2  10
TORSDOF 5
ENDMDL
