MODEL 1
REMARK VINA RESULT:    -8.565      0.000      0.000
REMARK INTER + INTRA:         -10.460
REMARK INTER:                 -10.067
REMARK INTRA:                  -0.394
REMARK UNBOUND:                -0.394
REMARK SMILES C[NH2+][C@@H](c1ccc2[nH]c(=O)c(=O)[nH]c2c1)[C@@H]1CCCO1
REMARK SMILES IDX 3 1 2 2 1 3 4 6 5 7 15 8 6 9 14 10 7 11 13 12 8 13 11 14
REMARK SMILES IDX 9 15 12 16 10 17 16 20 17 21 20 22 18 23 19 24
REMARK H PARENT 2 4 2 5 13 18 8 19
ROOT
ATOM      1  C   UNL     1      51.802  57.017  20.796  1.00  0.00    +0.242 C 
ENDROOT
BRANCH   1   2
ATOM      2  N   UNL     1      52.307  57.556  22.118  1.00  0.00    -0.340 N 
ATOM      3  C   UNL     1      53.638  58.200  22.114  1.00  0.00    +0.331 C 
ATOM      4  H   UNL     1      51.584  58.236  22.422  1.00  0.00    +0.346 HD
ATOM      5  H   UNL     1      52.287  56.808  22.823  1.00  0.00    +0.346 HD
ENDBRANCH   1   2
BRANCH   1   6
ATOM      6  C   UNL     1      51.828  55.496  20.836  1.00  0.00    +0.014 A 
ATOM      7  C   UNL     1      51.588  54.788  22.029  1.00  0.00    +0.012 A 
ATOM      8  C   UNL     1      52.137  54.770  19.672  1.00  0.00    +0.038 A 
ATOM      9  C   UNL     1      51.640  53.391  22.057  1.00  0.00    +0.029 A 
ATOM     10  C   UNL     1      52.189  53.374  19.705  1.00  0.00    +0.066 A 
ATOM     11  C   UNL     1      51.941  52.687  20.895  1.00  0.00    +0.065 A 
ATOM     12  N   UNL     1      52.492  52.663  18.543  1.00  0.00    -0.316 N 
ATOM     13  N   UNL     1      51.995  51.293  20.922  1.00  0.00    -0.316 N 
ATOM     14  C   UNL     1      52.563  51.286  18.495  1.00  0.00    +0.314 C 
ATOM     15  C   UNL     1      52.286  50.525  19.814  1.00  0.00    +0.314 C 
ATOM     16  O   UNL     1      52.834  50.702  17.456  1.00  0.00    -0.263 OA
ATOM     17  O   UNL     1      52.329  49.304  19.873  1.00  0.00    -0.263 OA
ATOM     18  H   UNL     1      52.671  53.126  17.662  1.00  0.00    +0.170 HD
ATOM     19  H   UNL     1      51.814  50.773  21.771  1.00  0.00    +0.170 HD
ENDBRANCH   1   6
BRANCH   1  20
ATOM     20  C   UNL     1      50.379  57.586  20.549  1.00  0.00    +0.181 C 
ATOM     21  C   UNL     1      49.563  57.851  21.803  1.00  0.00    +0.041 C 
ATOM     22  O   UNL     1      49.598  56.609  19.811  1.00  0.00    -0.372 OA
ATOM     23  C   UNL     1      48.160  57.862  21.243  1.00  0.00    +0.031 C 
ATOM     24  C   UNL     1      48.212  56.779  20.183  1.00  0.00    +0.161 C 
ENDBRANCH   1  20
TORSDOF 3
ENDMDL
MODEL 2
REMARK VINA RESULT:    -8.167      5.755      8.403
REMARK INTER + INTRA:          -9.993
REMARK INTER:                  -9.789
REMARK INTRA:                  -0.204
REMARK UNBOUND:                -0.394
REMARK SMILES C[NH2+][C@@H](c1ccc2[nH]c(=O)c(=O)[nH]c2c1)[C@@H]1CCCO1
REMARK SMILES IDX 3 1 2 2 1 3 4 6 5 7 15 8 6 9 14 10 7 11 13 12 8 13 11 14
REMARK SMILES IDX 9 15 12 16 10 17 16 20 17 21 20 22 18 23 19 24
REMARK H PARENT 2 4 2 5 13 18 8 19
ROOT
ATOM      1  C   UNL     1      45.984  48.816  17.744  1.00  0.00    +0.242 C 
ENDROOT
BRANCH   1   2
ATOM      2  N   UNL     1      46.094  47.856  18.909  1.00  0.00    -0.340 N 
ATOM      3  C   UNL     1      44.854  47.171  19.333  1.00  0.00    +0.331 C 
ATOM      4  H   UNL     1      46.802  47.157  18.612  1.00  0.00    +0.346 HD
ATOM      5  H   UNL     1      46.514  48.340  19.713  1.00  0.00    +0.346 HD
ENDBRANCH   1   2
BRANCH   1   6
ATOM      6  C   UNL     1      47.182  49.753  17.756  1.00  0.00    +0.014 A 
ATOM      7  C   UNL     1      47.108  51.048  17.206  1.00  0.00    +0.012 A 
ATOM      8  C   UNL     1      48.409  49.317  18.287  1.00  0.00    +0.038 A 
ATOM      9  C   UNL     1      48.224  51.891  17.200  1.00  0.00    +0.029 A 
ATOM     10  C   UNL     1      49.521  50.162  18.278  1.00  0.00    +0.066 A 
ATOM     11  C   UNL     1      49.429  51.446  17.736  1.00  0.00    +0.065 A 
ATOM     12  N   UNL     1      50.733  49.720  18.813  1.00  0.00    -0.316 N 
ATOM     13  N   UNL     1      50.544  52.284  17.729  1.00  0.00    -0.316 N 
ATOM     14  C   UNL     1      51.875  50.493  18.841  1.00  0.00    +0.314 C 
ATOM     15  C   UNL     1      51.771  51.916  18.240  1.00  0.00    +0.314 C 
ATOM     16  O   UNL     1      52.917  50.066  19.317  1.00  0.00    -0.263 OA
ATOM     17  O   UNL     1      52.730  52.675  18.216  1.00  0.00    -0.263 OA
ATOM     18  H   UNL     1      50.835  48.800  19.220  1.00  0.00    +0.170 HD
ATOM     19  H   UNL     1      50.500  53.219  17.347  1.00  0.00    +0.170 HD
ENDBRANCH   1   6
BRANCH   1  20
ATOM     20  C   UNL     1      45.884  47.987  16.435  1.00  0.00    +0.181 C 
ATOM     21  C   UNL     1      46.714  48.509  15.275  1.00  0.00    +0.041 C 
ATOM     22  O   UNL     1      44.516  48.030  15.948  1.00  0.00    -0.372 OA
ATOM     23  C   UNL     1      46.017  47.864  14.101  1.00  0.00    +0.031 C 
ATOM     24  C   UNL     1      44.557  47.912  14.508  1.00  0.00    +0.161 C 
ENDBRANCH   1  20
TORSDOF 3
ENDMDL
MODEL 3
REMARK VINA RESULT:    -7.612      3.753      6.764
REMARK INTER + INTRA:          -9.340
REMARK INTER:                  -8.990
REMARK INTRA:                  -0.350
REMARK UNBOUND:                -0.394
REMARK SMILES C[NH2+][C@@H](c1ccc2[nH]c(=O)c(=O)[nH]c2c1)[C@@H]1CCCO1
REMARK SMILES IDX 3 1 2 2 1 3 4 6 5 7 15 8 6 9 14 10 7 11 13 12 8 13 11 14
REMARK SMILES IDX 9 15 12 16 10 17 16 20 17 21 20 22 18 23 19 24
REMARK H PARENT 2 4 2 5 13 18 8 19
ROOT
ATOM      1  C   UNL     1      49.516  50.116  17.520  1.00  0.00    +0.242 C 
ENDROOT
BRANCH   1   2
ATOM      2  N   UNL     1      49.891  50.848  16.249  1.00  0.00    -0.340 N 
ATOM      3  C   UNL     1      50.515  50.046  15.175  1.00  0.00    +0.331 C 
ATOM      4  H   UNL     1      49.004  51.266  15.911  1.00  0.00    +0.346 HD
ATOM      5  H   UNL     1      50.496  51.647  16.480  1.00  0.00    +0.346 HD
ENDBRANCH   1   2
BRANCH   1   6
ATOM      6  C   UNL     1      50.092  50.864  18.714  1.00  0.00    +0.014 A 
ATOM      7  C   UNL     1      50.710  50.182  19.779  1.00  0.00    +0.012 A 
ATOM      8  C   UNL     1      49.975  52.264  18.788  1.00  0.00    +0.038 A 
ATOM      9  C   UNL     1      51.213  50.879  20.883  1.00  0.00    +0.029 A 
ATOM     10  C   UNL     1      50.478  52.956  19.892  1.00  0.00    +0.066 A 
ATOM     11  C   UNL     1      51.095  52.265  20.937  1.00  0.00    +0.065 A 
ATOM     12  N   UNL     1      50.361  54.345  19.953  1.00  0.00    -0.316 N 
ATOM     13  N   UNL     1      51.594  52.962  22.038  1.00  0.00    -0.316 N 
ATOM     14  C   UNL     1      50.831  55.100  21.008  1.00  0.00    +0.314 C 
ATOM     15  C   UNL     1      51.515  54.332  22.165  1.00  0.00    +0.314 C 
ATOM     16  O   UNL     1      50.706  56.316  21.022  1.00  0.00    -0.263 OA
ATOM     17  O   UNL     1      51.961  54.912  23.146  1.00  0.00    -0.263 OA
ATOM     18  H   UNL     1      49.927  54.880  19.212  1.00  0.00    +0.170 HD
ATOM     19  H   UNL     1      52.049  52.483  22.804  1.00  0.00    +0.170 HD
ENDBRANCH   1   6
BRANCH   1  20
ATOM     20  C   UNL     1      47.969  49.998  17.577  1.00  0.00    +0.181 C 
ATOM     21  C   UNL     1      47.438  48.895  18.476  1.00  0.00    +0.041 C 
ATOM     22  O   UNL     1      47.469  49.658  16.255  1.00  0.00    -0.372 OA
ATOM     23  C   UNL     1      46.048  48.704  17.917  1.00  0.00    +0.031 C 
ATOM     24  C   UNL     1      46.256  48.892  16.426  1.00  0.00    +0.161 C 
ENDBRANCH   1  20
TORSDOF 3
ENDMDL
MODEL 4
REMARK VINA RESULT:    -7.464      1.873      3.056
REMARK INTER + INTRA:          -9.167
REMARK INTER:                  -8.846
REMARK INTRA:                  -0.320
REMARK UNBOUND:                -0.394
REMARK SMILES C[NH2+][C@@H](c1ccc2[nH]c(=O)c(=O)[nH]c2c1)[C@@H]1CCCO1
REMARK SMILES IDX 3 1 2 2 1 3 4 6 5 7 15 8 6 9 14 10 7 11 13 12 8 13 11 14
REMARK SMILES IDX 9 15 12 16 10 17 16 20 17 21 20 22 18 23 19 24
REMARK H PARENT 2 4 2 5 13 18 8 19
ROOT
ATOM      1  C   UNL     1      50.366  56.524  21.069  1.00  0.00    +0.242 C 
ENDROOT
BRANCH   1   2
ATOM      2  N   UNL     1      49.363  56.787  19.966  1.00  0.00    -0.340 N 
ATOM      3  C   UNL     1      48.014  57.229  20.378  1.00  0.00    +0.331 C 
ATOM      4  H   UNL     1      49.808  57.510  19.369  1.00  0.00    +0.346 HD
ATOM      5  H   UNL     1      49.286  55.954  19.367  1.00  0.00    +0.346 HD
ENDBRANCH   1   2
BRANCH   1   6
ATOM      6  C   UNL     1      50.639  55.029  21.148  1.00  0.00    +0.014 A 
ATOM      7  C   UNL     1      51.354  54.469  22.224  1.00  0.00    +0.012 A 
ATOM      8  C   UNL     1      50.211  54.181  20.110  1.00  0.00    +0.038 A 
ATOM      9  C   UNL     1      51.621  53.097  22.272  1.00  0.00    +0.029 A 
ATOM     10  C   UNL     1      50.481  52.812  20.162  1.00  0.00    +0.066 A 
ATOM     11  C   UNL     1      51.184  52.271  21.240  1.00  0.00    +0.065 A 
ATOM     12  N   UNL     1      50.047  51.980  19.129  1.00  0.00    -0.316 N 
ATOM     13  N   UNL     1      51.451  50.903  21.285  1.00  0.00    -0.316 N 
ATOM     14  C   UNL     1      50.274  50.619  19.106  1.00  0.00    +0.314 C 
ATOM     15  C   UNL     1      51.053  50.021  20.303  1.00  0.00    +0.314 C 
ATOM     16  O   UNL     1      49.877  49.926  18.181  1.00  0.00    -0.263 OA
ATOM     17  O   UNL     1      51.306  48.826  20.372  1.00  0.00    -0.263 OA
ATOM     18  H   UNL     1      49.528  52.335  18.336  1.00  0.00    +0.170 HD
ATOM     19  H   UNL     1      51.955  50.487  22.058  1.00  0.00    +0.170 HD
ENDBRANCH   1   6
BRANCH   1  20
ATOM     20  C   UNL     1      51.645  57.353  20.774  1.00  0.00    +0.181 C 
ATOM     21  C   UNL     1      52.797  56.568  20.170  1.00  0.00    +0.041 C 
ATOM     22  O   UNL     1      52.176  57.869  22.024  1.00  0.00    -0.372 OA
ATOM     23  C   UNL     1      53.968  57.464  20.502  1.00  0.00    +0.031 C 
ATOM     24  C   UNL     1      53.608  57.992  21.877  1.00  0.00    +0.161 C 
ENDBRANCH   1  20
TORSDOF 3
ENDMDL
MODEL 5
REMARK VINA RESULT:    -7.294      5.100      6.970
REMARK INTER + INTRA:          -8.966
REMARK INTER:                  -8.689
REMARK INTRA:                  -0.277
REMARK UNBOUND:                -0.394
REMARK SMILES C[NH2+][C@@H](c1ccc2[nH]c(=O)c(=O)[nH]c2c1)[C@@H]1CCCO1
REMARK SMILES IDX 3 1 2 2 1 3 4 6 5 7 15 8 6 9 14 10 7 11 13 12 8 13 11 14
REMARK SMILES IDX 9 15 12 16 10 17 16 20 17 21 20 22 18 23 19 24
REMARK H PARENT 2 4 2 5 13 18 8 19
ROOT
ATOM      1  C   UNL     1      51.006  51.119  18.002  1.00  0.00    +0.242 C 
ENDROOT
BRANCH   1   2
ATOM      2  N   UNL     1      51.792  50.046  18.724  1.00  0.00    -0.340 N 
ATOM      3  C   UNL     1      52.077  50.273  20.157  1.00  0.00    +0.331 C 
ATOM      4  H   UNL     1      51.231  49.181  18.606  1.00  0.00    +0.346 HD
ATOM      5  H   UNL     1      52.671  49.868  18.221  1.00  0.00    +0.346 HD
ENDBRANCH   1   2
BRANCH   1   6
ATOM      6  C   UNL     1      49.690  50.531  17.516  1.00  0.00    +0.014 A 
ATOM      7  C   UNL     1      49.214  50.773  16.212  1.00  0.00    +0.012 A 
ATOM      8  C   UNL     1      48.901  49.760  18.389  1.00  0.00    +0.038 A 
ATOM      9  C   UNL     1      47.990  50.247  15.785  1.00  0.00    +0.029 A 
ATOM     10  C   UNL     1      47.679  49.238  17.958  1.00  0.00    +0.066 A 
ATOM     11  C   UNL     1      47.225  49.481  16.660  1.00  0.00    +0.065 A 
ATOM     12  N   UNL     1      46.906  48.471  18.831  1.00  0.00    -0.316 N 
ATOM     13  N   UNL     1      46.003  48.957  16.237  1.00  0.00    -0.316 N 
ATOM     14  C   UNL     1      45.689  47.922  18.483  1.00  0.00    +0.314 C 
ATOM     15  C   UNL     1      45.188  48.191  17.043  1.00  0.00    +0.314 C 
ATOM     16  O   UNL     1      45.043  47.257  19.279  1.00  0.00    -0.263 OA
ATOM     17  O   UNL     1      44.120  47.749  16.641  1.00  0.00    -0.263 OA
ATOM     18  H   UNL     1      47.205  48.269  19.776  1.00  0.00    +0.170 HD
ATOM     19  H   UNL     1      45.656  49.116  15.300  1.00  0.00    +0.170 HD
ENDBRANCH   1   6
BRANCH   1  20
ATOM     20  C   UNL     1      50.806  52.314  18.973  1.00  0.00    +0.181 C 
ATOM     21  C   UNL     1      49.558  53.144  18.727  1.00  0.00    +0.041 C 
ATOM     22  O   UNL     1      51.902  53.253  18.803  1.00  0.00    -0.372 OA
ATOM     23  C   UNL     1      49.924  54.437  19.416  1.00  0.00    +0.031 C 
ATOM     24  C   UNL     1      51.403  54.574  19.112  1.00  0.00    +0.161 C 
ENDBRANCH   1  20
TORSDOF 3
ENDMDL
