MODEL 1
REMARK VINA RESULT:    -7.355      0.000      0.000
REMARK INTER + INTRA:         -11.699
REMARK INTER:                 -11.225
REMARK INTRA:                  -0.474
REMARK UNBOUND:                -0.474
REMARK SMILES [NH3+]Cc1ccc(OC[C@H](O)COCc2ccco2)cc1
REMARK SMILES IDX 8 1 9 2 11 3 12 4 13 5 14 6 16 7 15 8 17 9 18 10 10 11 7 13
REMARK SMILES IDX 6 14 5 15 19 16 4 17 20 18 3 19 2 20 1 21
REMARK H PARENT 10 12 1 22 1 23 1 24
ROOT
ATOM      1  C   UNL     1      50.515  49.767  19.808  1.00  0.00    +0.263 C 
ENDROOT
BRANCH   1   2
ATOM      2  C   UNL     1      52.012  50.090  19.800  1.00  0.00    +0.177 C 
BRANCH   2   3
ATOM      3  C   UNL     1      52.398  50.954  21.005  1.00  0.00    +0.196 C 
BRANCH   3   4
ATOM      4  O   UNL     1      52.034  52.315  20.739  1.00  0.00    -0.371 OA
BRANCH   4   5
ATOM      5  C   UNL     1      51.492  52.977  21.884  1.00  0.00    +0.235 C 
BRANCH   5   6
ATOM      6  C   UNL     1      51.783  54.428  21.790  1.00  0.00    +0.129 A 
ATOM      7  C   UNL     1      52.092  56.637  21.981  1.00  0.00    +0.042 A 
ATOM      8  C   UNL     1      51.606  55.491  22.653  1.00  0.00    +0.048 A 
ATOM      9  C   UNL     1      52.533  56.203  20.753  1.00  0.00    +0.195 A 
ATOM     10  O   UNL     1      52.347  54.864  20.625  1.00  0.00    -0.467 OA
ENDBRANCH   5   6
ENDBRANCH   4   5
ENDBRANCH   3   4
ENDBRANCH   2   3
BRANCH   2  11
ATOM     11  O   UNL     1      52.743  48.853  19.847  1.00  0.00    -0.387 OA
ATOM     12  H   UNL     1      52.115  48.155  19.587  1.00  0.00    +0.211 HD
ENDBRANCH   2  11
ENDBRANCH   1   2
BRANCH   1  13
ATOM     13  O   UNL     1      49.911  50.468  18.710  1.00  0.00    -0.491 OA
BRANCH  13  14
ATOM     14  C   UNL     1      48.679  50.049  18.297  1.00  0.00    +0.119 A 
ATOM     15  C   UNL     1      48.283  48.814  18.812  1.00  0.00    +0.047 A 
ATOM     16  C   UNL     1      47.825  50.730  17.433  1.00  0.00    +0.047 A 
ATOM     17  C   UNL     1      47.044  48.262  18.479  1.00  0.00    +0.013 A 
ATOM     18  C   UNL     1      46.581  50.182  17.092  1.00  0.00    +0.013 A 
ATOM     19  C   UNL     1      46.176  48.945  17.617  1.00  0.00    +0.006 A 
BRANCH  19  20
ATOM     20  C   UNL     1      44.864  48.339  17.221  1.00  0.00    +0.295 C 
BRANCH  20  21
ATOM     21  N   UNL     1      44.143  47.827  18.406  1.00  0.00    -0.354 N 
ATOM     22  H   UNL     1      43.601  46.988  18.163  1.00  0.00    +0.344 HD
ATOM     23  H   UNL     1      43.475  48.526  18.753  1.00  0.00    +0.344 HD
ATOM     24  H   UNL     1      44.786  47.586  19.169  1.00  0.00    +0.344 HD
ENDBRANCH  20  21
ENDBRANCH  19  20
ENDBRANCH  13  14
ENDBRANCH   1  13
TORSDOF 10
ENDMDL
MODEL 2
REMARK VINA RESULT:    -7.173      2.978      7.074
REMARK INTER + INTRA:         -11.422
REMARK INTER:                 -10.758
REMARK INTRA:                  -0.663
REMARK UNBOUND:                -0.474
REMARK SMILES [NH3+]Cc1ccc(OC[C@H](O)COCc2ccco2)cc1
REMARK SMILES IDX 8 1 9 2 11 3 12 4 13 5 14 6 16 7 15 8 17 9 18 10 10 11 7 13
REMARK SMILES IDX 6 14 5 15 19 16 4 17 20 18 3 19 2 20 1 21
REMARK H PARENT 10 12 1 22 1 23 1 24
ROOT
ATOM      1  C   UNL     1      52.310  51.255  21.250  1.00  0.00    +0.263 C 
ENDROOT
BRANCH   1   2
ATOM      2  C   UNL     1      52.190  50.165  20.180  1.00  0.00    +0.177 C 
BRANCH   2   3
ATOM      3  C   UNL     1      52.063  50.775  18.780  1.00  0.00    +0.196 C 
BRANCH   3   4
ATOM      4  O   UNL     1      50.691  50.721  18.370  1.00  0.00    -0.371 OA
BRANCH   4   5
ATOM      5  C   UNL     1      49.971  49.649  18.983  1.00  0.00    +0.235 C 
BRANCH   5   6
ATOM      6  C   UNL     1      48.605  49.590  18.412  1.00  0.00    +0.129 A 
ATOM      7  C   UNL     1      46.508  49.197  17.732  1.00  0.00    +0.042 A 
ATOM      8  C   UNL     1      47.567  48.686  18.520  1.00  0.00    +0.048 A 
ATOM      9  C   UNL     1      46.966  50.375  17.193  1.00  0.00    +0.195 A 
ATOM     10  O   UNL     1      48.239  50.622  17.596  1.00  0.00    -0.467 OA
ENDBRANCH   5   6
ENDBRANCH   4   5
ENDBRANCH   3   4
ENDBRANCH   2   3
BRANCH   2  11
ATOM     11  O   UNL     1      53.367  49.343  20.237  1.00  0.00    -0.387 OA
ATOM     12  H   UNL     1      53.212  48.603  19.622  1.00  0.00    +0.211 HD
ENDBRANCH   2  11
ENDBRANCH   1   2
BRANCH   1  13
ATOM     13  O   UNL     1      51.001  51.805  21.462  1.00  0.00    -0.491 OA
BRANCH  13  14
ATOM     14  C   UNL     1      50.859  53.158  21.343  1.00  0.00    +0.119 A 
ATOM     15  C   UNL     1      51.614  53.903  22.249  1.00  0.00    +0.047 A 
ATOM     16  C   UNL     1      50.049  53.823  20.425  1.00  0.00    +0.047 A 
ATOM     17  C   UNL     1      51.573  55.299  22.241  1.00  0.00    +0.013 A 
ATOM     18  C   UNL     1      50.000  55.224  20.413  1.00  0.00    +0.013 A 
ATOM     19  C   UNL     1      50.767  55.975  21.316  1.00  0.00    +0.006 A 
BRANCH  19  20
ATOM     20  C   UNL     1      50.684  57.471  21.330  1.00  0.00    +0.295 C 
BRANCH  20  21
ATOM     21  N   UNL     1      49.646  57.932  22.277  1.00  0.00    -0.354 N 
ATOM     22  H   UNL     1      48.712  57.853  21.854  1.00  0.00    +0.344 HD
ATOM     23  H   UNL     1      49.786  58.921  22.513  1.00  0.00    +0.344 HD
ATOM     24  H   UNL     1      49.654  57.387  23.146  1.00  0.00    +0.344 HD
ENDBRANCH  20  21
ENDBRANCH  19  20
ENDBRANCH  13  14
ENDBRANCH   1  13
TORSDOF 10
ENDMDL
MODEL 3
REMARK VINA RESULT:    -7.046      1.018      1.517
REMARK INTER + INTRA:         -11.226
REMARK INTER:                 -10.705
REMARK INTRA:                  -0.522
REMARK UNBOUND:                -0.474
REMARK SMILES [NH3+]Cc1ccc(OC[C@H](O)COCc2ccco2)cc1
REMARK SMILES IDX 8 1 9 2 11 3 12 4 13 5 14 6 16 7 15 8 17 9 18 10 10 11 7 13
REMARK SMILES IDX 6 14 5 15 19 16 4 17 20 18 3 19 2 20 1 21
REMARK H PARENT 10 12 1 22 1 23 1 24
ROOT
ATOM      1  C   UNL     1      51.021  49.913  19.513  1.00  0.00    +0.263 C 
ENDROOT
BRANCH   1   2
ATOM      2  C   UNL     1      52.364  50.646  19.450  1.00  0.00    +0.177 C 
BRANCH   2   3
ATOM      3  C   UNL     1      52.165  52.166  19.460  1.00  0.00    +0.196 C 
BRANCH   3   4
ATOM      4  O   UNL     1      51.903  52.593  20.802  1.00  0.00    -0.371 OA
BRANCH   4   5
ATOM      5  C   UNL     1      50.641  53.251  20.938  1.00  0.00    +0.235 C 
BRANCH   5   6
ATOM      6  C   UNL     1      50.867  54.662  21.333  1.00  0.00    +0.129 A 
ATOM      7  C   UNL     1      50.894  56.856  21.778  1.00  0.00    +0.042 A 
ATOM      8  C   UNL     1      50.144  55.825  21.164  1.00  0.00    +0.048 A 
ATOM      9  C   UNL     1      52.026  56.259  22.280  1.00  0.00    +0.195 A 
ATOM     10  O   UNL     1      52.022  54.928  22.013  1.00  0.00    -0.467 OA
ENDBRANCH   5   6
ENDBRANCH   4   5
ENDBRANCH   3   4
ENDBRANCH   2   3
BRANCH   2  11
ATOM     11  O   UNL     1      53.146  50.261  20.592  1.00  0.00    -0.387 OA
ATOM     12  H   UNL     1      53.310  51.077  21.098  1.00  0.00    +0.211 HD
ENDBRANCH   2  11
ENDBRANCH   1   2
BRANCH   1  13
ATOM     13  O   UNL     1      50.186  50.438  18.470  1.00  0.00    -0.491 OA
BRANCH  13  14
ATOM     14  C   UNL     1      48.935  49.908  18.338  1.00  0.00    +0.119 A 
ATOM     15  C   UNL     1      48.131  50.546  17.393  1.00  0.00    +0.047 A 
ATOM     16  C   UNL     1      48.420  48.825  19.047  1.00  0.00    +0.047 A 
ATOM     17  C   UNL     1      46.827  50.109  17.147  1.00  0.00    +0.013 A 
ATOM     18  C   UNL     1      47.113  48.382  18.808  1.00  0.00    +0.013 A 
ATOM     19  C   UNL     1      46.306  49.015  17.851  1.00  0.00    +0.006 A 
BRANCH  19  20
ATOM     20  C   UNL     1      44.894  48.568  17.624  1.00  0.00    +0.295 C 
BRANCH  20  21
ATOM     21  N   UNL     1      44.751  47.120  17.889  1.00  0.00    -0.354 N 
ATOM     22  H   UNL     1      44.004  46.719  17.309  1.00  0.00    +0.344 HD
ATOM     23  H   UNL     1      44.492  46.956  18.869  1.00  0.00    +0.344 HD
ATOM     24  H   UNL     1      45.620  46.610  17.694  1.00  0.00    +0.344 HD
ENDBRANCH  20  21
ENDBRANCH  19  20
ENDBRANCH  13  14
ENDBRANCH   1  13
TORSDOF 10
ENDMDL
MODEL 4
REMARK VINA RESULT:    -6.813      3.365      7.154
REMARK INTER + INTRA:         -10.872
REMARK INTER:                 -10.338
REMARK INTRA:                  -0.534
REMARK UNBOUND:                -0.474
REMARK SMILES [NH3+]Cc1ccc(OC[C@H](O)COCc2ccco2)cc1
REMARK SMILES IDX 8 1 9 2 11 3 12 4 13 5 14 6 16 7 15 8 17 9 18 10 10 11 7 13
REMARK SMILES IDX 6 14 5 15 19 16 4 17 20 18 3 19 2 20 1 21
REMARK H PARENT 10 12 1 22 1 23 1 24
ROOT
ATOM      1  C   UNL     1      51.399  52.780  21.797  1.00  0.00    +0.263 C 
ENDROOT
BRANCH   1   2
ATOM      2  C   UNL     1      51.440  51.335  21.290  1.00  0.00    +0.177 C 
BRANCH   2   3
ATOM      3  C   UNL     1      51.322  51.282  19.763  1.00  0.00    +0.196 C 
BRANCH   3   4
ATOM      4  O   UNL     1      50.227  50.427  19.409  1.00  0.00    -0.371 OA
BRANCH   4   5
ATOM      5  C   UNL     1      49.658  50.753  18.138  1.00  0.00    +0.235 C 
BRANCH   5   6
ATOM      6  C   UNL     1      48.327  50.111  18.022  1.00  0.00    +0.129 A 
ATOM      7  C   UNL     1      46.250  49.390  17.600  1.00  0.00    +0.042 A 
ATOM      8  C   UNL     1      47.208  50.373  17.258  1.00  0.00    +0.048 A 
ATOM      9  C   UNL     1      46.842  48.592  18.549  1.00  0.00    +0.195 A 
ATOM     10  O   UNL     1      48.102  49.022  18.816  1.00  0.00    -0.467 OA
ENDBRANCH   5   6
ENDBRANCH   4   5
ENDBRANCH   3   4
ENDBRANCH   2   3
BRANCH   2  11
ATOM     11  O   UNL     1      52.689  50.748  21.691  1.00  0.00    -0.387 OA
ATOM     12  H   UNL     1      53.383  51.379  21.428  1.00  0.00    +0.211 HD
ENDBRANCH   2  11
ENDBRANCH   1   2
BRANCH   1  13
ATOM     13  O   UNL     1      51.340  53.644  20.653  1.00  0.00    -0.491 OA
BRANCH  13  14
ATOM     14  C   UNL     1      50.505  54.722  20.720  1.00  0.00    +0.119 A 
ATOM     15  C   UNL     1      49.339  54.602  19.963  1.00  0.00    +0.047 A 
ATOM     16  C   UNL     1      50.721  55.886  21.455  1.00  0.00    +0.047 A 
ATOM     17  C   UNL     1      48.389  55.626  19.941  1.00  0.00    +0.013 A 
ATOM     18  C   UNL     1      49.774  56.919  21.435  1.00  0.00    +0.013 A 
ATOM     19  C   UNL     1      48.596  56.796  20.683  1.00  0.00    +0.006 A 
BRANCH  19  20
ATOM     20  C   UNL     1      47.603  57.916  20.629  1.00  0.00    +0.295 C 
BRANCH  20  21
ATOM     21  N   UNL     1      47.841  58.774  19.449  1.00  0.00    -0.354 N 
ATOM     22  H   UNL     1      46.966  58.927  18.932  1.00  0.00    +0.344 HD
ATOM     23  H   UNL     1      48.498  58.324  18.801  1.00  0.00    +0.344 HD
ATOM     24  H   UNL     1      48.223  59.690  19.714  1.00  0.00    +0.344 HD
ENDBRANCH  20  21
ENDBRANCH  19  20
ENDBRANCH  13  14
ENDBRANCH   1  13
TORSDOF 10
ENDMDL
MODEL 5
REMARK VINA RESULT:    -6.742      2.163      2.763
REMARK INTER + INTRA:         -10.763
REMARK INTER:                 -10.338
REMARK INTRA:                  -0.425
REMARK UNBOUND:                -0.474
REMARK SMILES [NH3+]Cc1ccc(OC[C@H](O)COCc2ccco2)cc1
REMARK SMILES IDX 8 1 9 2 11 3 12 4 13 5 14 6 16 7 15 8 17 9 18 10 10 11 7 13
REMARK SMILES IDX 6 14 5 15 19 16 4 17 20 18 3 19 2 20 1 21
REMARK H PARENT 10 12 1 22 1 23 1 24
ROOT
ATOM      1  C   UNL     1      49.387  52.154  17.756  1.00  0.00    +0.263 C 
ENDROOT
BRANCH   1   2
ATOM      2  C   UNL     1      50.736  52.788  18.111  1.00  0.00    +0.177 C 
BRANCH   2   3
ATOM      3  C   UNL     1      50.715  53.377  19.525  1.00  0.00    +0.196 C 
BRANCH   3   4
ATOM      4  O   UNL     1      50.796  54.805  19.438  1.00  0.00    -0.371 OA
BRANCH   4   5
ATOM      5  C   UNL     1      51.125  55.419  20.686  1.00  0.00    +0.235 C 
BRANCH   5   6
ATOM      6  C   UNL     1      50.114  56.457  21.000  1.00  0.00    +0.129 A 
ATOM      7  C   UNL     1      48.819  58.134  21.721  1.00  0.00    +0.042 A 
ATOM      8  C   UNL     1      50.056  57.478  21.926  1.00  0.00    +0.048 A 
ATOM      9  C   UNL     1      48.201  57.472  20.687  1.00  0.00    +0.195 A 
ATOM     10  O   UNL     1      48.977  56.450  20.244  1.00  0.00    -0.467 OA
ENDBRANCH   5   6
ENDBRANCH   4   5
ENDBRANCH   3   4
ENDBRANCH   2   3
BRANCH   2  11
ATOM     11  O   UNL     1      51.750  51.772  18.032  1.00  0.00    -0.387 OA
ATOM     12  H   UNL     1      51.322  50.940  18.305  1.00  0.00    +0.211 HD
ENDBRANCH   2  11
ENDBRANCH   1   2
BRANCH   1  13
ATOM     13  O   UNL     1      49.507  50.737  17.947  1.00  0.00    -0.491 OA
BRANCH  13  14
ATOM     14  C   UNL     1      48.352  50.013  18.026  1.00  0.00    +0.119 A 
ATOM     15  C   UNL     1      47.311  50.491  17.229  1.00  0.00    +0.047 A 
ATOM     16  C   UNL     1      48.141  48.882  18.812  1.00  0.00    +0.047 A 
ATOM     17  C   UNL     1      46.072  49.847  17.205  1.00  0.00    +0.013 A 
ATOM     18  C   UNL     1      46.900  48.232  18.796  1.00  0.00    +0.013 A 
ATOM     19  C   UNL     1      45.856  48.705  17.987  1.00  0.00    +0.006 A 
BRANCH  19  20
ATOM     20  C   UNL     1      44.515  48.035  17.999  1.00  0.00    +0.295 C 
BRANCH  20  21
ATOM     21  N   UNL     1      44.621  46.656  18.525  1.00  0.00    -0.354 N 
ATOM     22  H   UNL     1      45.290  46.618  19.304  1.00  0.00    +0.344 HD
ATOM     23  H   UNL     1      44.968  46.018  17.799  1.00  0.00    +0.344 HD
ATOM     24  H   UNL     1      43.716  46.305  18.858  1.00  0.00    +0.344 HD
ENDBRANCH  20  21
ENDBRANCH  19  20
ENDBRANCH  13  14
ENDBRANCH   1  13
TORSDOF 10
ENDMDL
