MODEL 1
REMARK VINA RESULT:    -7.998      0.000      0.000
REMARK INTER + INTRA:         -11.403
REMARK INTER:                 -10.803
REMARK INTRA:                  -0.599
REMARK UNBOUND:                -0.599
REMARK SMILES CC[C@@H](C)NC(=O)/C=C(\C)NNC(=O)c1cccc(F)c1
REMARK SMILES IDX 8 1 9 2 10 3 6 4 5 5 7 6 3 8 4 9 2 10 1 11 11 12 12 14 13 15
REMARK SMILES IDX 14 16 15 18 16 19 21 20 17 21 19 22 18 23 20 24
REMARK H PARENT 5 7 11 13 12 17
ROOT
ATOM      1  C   UNL     1      49.861  50.653  17.672  1.00  0.00    +0.093 C 
ATOM      2  C   UNL     1      49.690  51.990  17.719  1.00  0.00    +0.034 C 
ATOM      3  C   UNL     1      48.477  52.676  17.131  1.00  0.00    +0.066 C 
ENDROOT
BRANCH   1   4
ATOM      4  C   UNL     1      48.857  49.679  17.172  1.00  0.00    +0.245 C 
ATOM      5  N   UNL     1      47.878  49.410  18.100  1.00  0.00    -0.350 N 
ATOM      6  O   UNL     1      48.893  49.195  16.049  1.00  0.00    -0.270 OA
ATOM      7  H   UNL     1      47.872  49.914  18.976  1.00  0.00    +0.164 HD
BRANCH   5   8
ATOM      8  C   UNL     1      46.730  48.571  17.783  1.00  0.00    +0.079 C 
ATOM      9  C   UNL     1      45.613  49.425  17.182  1.00  0.00    +0.031 C 
BRANCH   8  10
ATOM     10  C   UNL     1      46.227  47.835  19.034  1.00  0.00    +0.021 C 
ATOM     11  C   UNL     1      44.765  47.421  18.919  1.00  0.00    +0.006 C 
ENDBRANCH   8  10
ENDBRANCH   5   8
ENDBRANCH   1   4
BRANCH   2  12
ATOM     12  N   UNL     1      50.676  52.816  18.262  1.00  0.00    -0.303 N 
ATOM     13  H   UNL     1      51.287  52.331  18.933  1.00  0.00    +0.187 HD
BRANCH  12  14
ATOM     14  N   UNL     1      50.369  54.098  18.745  1.00  0.00    -0.266 N 
ATOM     15  C   UNL     1      50.239  54.228  20.118  1.00  0.00    +0.269 C 
ATOM     16  O   UNL     1      50.477  53.309  20.899  1.00  0.00    -0.267 OA
ATOM     17  H   UNL     1      49.986  54.763  18.083  1.00  0.00    +0.191 HD
BRANCH  15  18
ATOM     18  C   UNL     1      49.759  55.544  20.619  1.00  0.00    +0.044 A 
ATOM     19  C   UNL     1      50.583  56.260  21.501  1.00  0.00    +0.014 A 
ATOM     20  C   UNL     1      48.535  56.090  20.221  1.00  0.00    +0.053 A 
ATOM     21  C   UNL     1      50.179  57.502  21.998  1.00  0.00    +0.004 A 
ATOM     22  C   UNL     1      48.148  57.328  20.724  1.00  0.00    +0.124 A 
ATOM     23  C   UNL     1      48.952  58.035  21.610  1.00  0.00    +0.039 A 
ATOM     24  F   UNL     1      46.975  57.851  20.342  1.00  0.00    -0.207 F 
ENDBRANCH  15  18
ENDBRANCH  12  14
ENDBRANCH   2  12
TORSDOF 6
ENDMDL
MODEL 2
REMARK VINA RESULT:    -7.969      2.019      2.555
REMARK INTER + INTRA:         -11.363
REMARK INTER:                 -10.726
REMARK INTRA:                  -0.637
REMARK UNBOUND:                -0.599
REMARK SMILES CC[C@@H](C)NC(=O)/C=C(\C)NNC(=O)c1cccc(F)c1
REMARK SMILES IDX 8 1 9 2 10 3 6 4 5 5 7 6 3 8 4 9 2 10 1 11 11 12 12 14 13 15
REMARK SMILES IDX 14 16 15 18 16 19 21 20 17 21 19 22 18 23 20 24
REMARK H PARENT 5 7 11 13 12 17
ROOT
ATOM      1  C   UNL     1      50.923  51.281  19.928  1.00  0.00    +0.093 C 
ATOM      2  C   UNL     1      51.778  51.993  19.166  1.00  0.00    +0.034 C 
ATOM      3  C   UNL     1      52.419  51.427  17.917  1.00  0.00    +0.066 C 
ENDROOT
BRANCH   1   4
ATOM      4  C   UNL     1      50.399  49.932  19.594  1.00  0.00    +0.245 C 
ATOM      5  N   UNL     1      49.349  49.981  18.707  1.00  0.00    -0.350 N 
ATOM      6  O   UNL     1      50.872  48.898  20.045  1.00  0.00    -0.270 OA
ATOM      7  H   UNL     1      49.070  50.870  18.316  1.00  0.00    +0.164 HD
BRANCH   5   8
ATOM      8  C   UNL     1      48.755  48.771  18.153  1.00  0.00    +0.079 C 
ATOM      9  C   UNL     1      48.954  48.741  16.637  1.00  0.00    +0.031 C 
BRANCH   8  10
ATOM     10  C   UNL     1      47.261  48.685  18.499  1.00  0.00    +0.021 C 
ATOM     11  C   UNL     1      46.411  49.624  17.652  1.00  0.00    +0.006 C 
ENDBRANCH   8  10
ENDBRANCH   5   8
ENDBRANCH   1   4
BRANCH   2  12
ATOM     12  N   UNL     1      52.167  53.280  19.543  1.00  0.00    -0.303 N 
ATOM     13  H   UNL     1      52.745  53.296  20.394  1.00  0.00    +0.187 HD
BRANCH  12  14
ATOM     14  N   UNL     1      51.245  54.338  19.578  1.00  0.00    -0.266 N 
ATOM     15  C   UNL     1      51.099  54.993  20.790  1.00  0.00    +0.269 C 
ATOM     16  O   UNL     1      51.802  54.748  21.768  1.00  0.00    -0.267 OA
ATOM     17  H   UNL     1      50.555  54.376  18.837  1.00  0.00    +0.191 HD
BRANCH  15  18
ATOM     18  C   UNL     1      50.013  56.007  20.872  1.00  0.00    +0.044 A 
ATOM     19  C   UNL     1      48.889  55.842  20.048  1.00  0.00    +0.014 A 
ATOM     20  C   UNL     1      50.072  57.090  21.753  1.00  0.00    +0.053 A 
ATOM     21  C   UNL     1      47.840  56.765  20.088  1.00  0.00    +0.004 A 
ATOM     22  C   UNL     1      49.019  57.999  21.782  1.00  0.00    +0.124 A 
ATOM     23  C   UNL     1      47.910  57.852  20.958  1.00  0.00    +0.039 A 
ATOM     24  F   UNL     1      49.076  59.038  22.627  1.00  0.00    -0.207 F 
ENDBRANCH  15  18
ENDBRANCH  12  14
ENDBRANCH   2  12
TORSDOF 6
ENDMDL
MODEL 3
REMARK VINA RESULT:    -7.843      2.915      8.006
REMARK INTER + INTRA:         -11.193
REMARK INTER:                 -10.621
REMARK INTRA:                  -0.571
REMARK UNBOUND:                -0.599
REMARK SMILES CC[C@@H](C)NC(=O)/C=C(\C)NNC(=O)c1cccc(F)c1
REMARK SMILES IDX 8 1 9 2 10 3 6 4 5 5 7 6 3 8 4 9 2 10 1 11 11 12 12 14 13 15
REMARK SMILES IDX 14 16 15 18 16 19 21 20 17 21 19 22 18 23 20 24
REMARK H PARENT 5 7 11 13 12 17
ROOT
ATOM      1  C   UNL     1      50.962  53.304  18.915  1.00  0.00    +0.093 C 
ATOM      2  C   UNL     1      49.868  52.902  18.236  1.00  0.00    +0.034 C 
ATOM      3  C   UNL     1      48.703  53.825  17.954  1.00  0.00    +0.066 C 
ENDROOT
BRANCH   1   4
ATOM      4  C   UNL     1      51.233  54.696  19.356  1.00  0.00    +0.245 C 
ATOM      5  N   UNL     1      50.558  55.023  20.508  1.00  0.00    -0.350 N 
ATOM      6  O   UNL     1      51.994  55.450  18.764  1.00  0.00    -0.270 OA
ATOM      7  H   UNL     1      50.014  54.316  20.983  1.00  0.00    +0.164 HD
BRANCH   5   8
ATOM      8  C   UNL     1      50.765  56.298  21.183  1.00  0.00    +0.079 C 
ATOM      9  C   UNL     1      51.518  56.076  22.495  1.00  0.00    +0.031 C 
BRANCH   8  10
ATOM     10  C   UNL     1      49.425  57.002  21.446  1.00  0.00    +0.021 C 
ATOM     11  C   UNL     1      48.446  56.847  20.290  1.00  0.00    +0.006 C 
ENDBRANCH   8  10
ENDBRANCH   5   8
ENDBRANCH   1   4
BRANCH   2  12
ATOM     12  N   UNL     1      49.736  51.577  17.817  1.00  0.00    -0.303 N 
ATOM     13  H   UNL     1      50.312  51.352  16.994  1.00  0.00    +0.187 HD
BRANCH  12  14
ATOM     14  N   UNL     1      48.474  50.976  17.687  1.00  0.00    -0.266 N 
ATOM     15  C   UNL     1      48.315  49.734  18.279  1.00  0.00    +0.269 C 
ATOM     16  O   UNL     1      49.184  49.211  18.973  1.00  0.00    -0.267 OA
ATOM     17  H   UNL     1      47.867  51.327  16.956  1.00  0.00    +0.191 HD
BRANCH  15  18
ATOM     18  C   UNL     1      47.034  49.027  18.009  1.00  0.00    +0.044 A 
ATOM     19  C   UNL     1      46.413  49.231  16.767  1.00  0.00    +0.014 A 
ATOM     20  C   UNL     1      46.452  48.160  18.938  1.00  0.00    +0.053 A 
ATOM     21  C   UNL     1      45.209  48.589  16.463  1.00  0.00    +0.004 A 
ATOM     22  C   UNL     1      45.255  47.527  18.620  1.00  0.00    +0.124 A 
ATOM     23  C   UNL     1      44.626  47.736  17.398  1.00  0.00    +0.039 A 
ATOM     24  F   UNL     1      44.698  46.696  19.511  1.00  0.00    -0.207 F 
ENDBRANCH  15  18
ENDBRANCH  12  14
ENDBRANCH   2  12
TORSDOF 6
ENDMDL
MODEL 4
REMARK VINA RESULT:    -7.637      1.687      2.079
REMARK INTER + INTRA:         -10.915
REMARK INTER:                 -10.424
REMARK INTRA:                  -0.491
REMARK UNBOUND:                -0.599
REMARK SMILES CC[C@@H](C)NC(=O)/C=C(\C)NNC(=O)c1cccc(F)c1
REMARK SMILES IDX 8 1 9 2 10 3 6 4 5 5 7 6 3 8 4 9 2 10 1 11 11 12 12 14 13 15
REMARK SMILES IDX 14 16 15 18 16 19 21 20 17 21 19 22 18 23 20 24
REMARK H PARENT 5 7 11 13 12 17
ROOT
ATOM      1  C   UNL     1      48.429  51.097  17.123  1.00  0.00    +0.093 C 
ATOM      2  C   UNL     1      49.443  51.611  17.849  1.00  0.00    +0.034 C 
ATOM      3  C   UNL     1      50.205  50.797  18.871  1.00  0.00    +0.066 C 
ENDROOT
BRANCH   1   4
ATOM      4  C   UNL     1      48.013  49.671  17.123  1.00  0.00    +0.245 C 
ATOM      5  N   UNL     1      46.791  49.481  17.723  1.00  0.00    -0.350 N 
ATOM      6  O   UNL     1      48.682  48.778  16.620  1.00  0.00    -0.270 OA
ATOM      7  H   UNL     1      46.263  50.282  18.040  1.00  0.00    +0.164 HD
BRANCH   5   8
ATOM      8  C   UNL     1      46.136  48.179  17.734  1.00  0.00    +0.079 C 
ATOM      9  C   UNL     1      44.793  48.267  17.008  1.00  0.00    +0.031 C 
BRANCH   8  10
ATOM     10  C   UNL     1      45.936  47.678  19.172  1.00  0.00    +0.021 C 
ATOM     11  C   UNL     1      44.540  47.115  19.405  1.00  0.00    +0.006 C 
ENDBRANCH   8  10
ENDBRANCH   5   8
ENDBRANCH   1   4
BRANCH   2  12
ATOM     12  N   UNL     1      49.791  52.959  17.733  1.00  0.00    -0.303 N 
ATOM     13  H   UNL     1      50.692  53.105  17.257  1.00  0.00    +0.187 HD
BRANCH  12  14
ATOM     14  N   UNL     1      49.686  53.835  18.825  1.00  0.00    -0.266 N 
ATOM     15  C   UNL     1      49.064  55.050  18.587  1.00  0.00    +0.269 C 
ATOM     16  O   UNL     1      48.534  55.327  17.513  1.00  0.00    -0.267 OA
ATOM     17  H   UNL     1      50.299  53.667  19.614  1.00  0.00    +0.191 HD
BRANCH  15  18
ATOM     18  C   UNL     1      49.093  56.040  19.697  1.00  0.00    +0.044 A 
ATOM     19  C   UNL     1      48.039  56.962  19.790  1.00  0.00    +0.014 A 
ATOM     20  C   UNL     1      50.115  56.061  20.649  1.00  0.00    +0.053 A 
ATOM     21  C   UNL     1      48.017  57.912  20.816  1.00  0.00    +0.004 A 
ATOM     22  C   UNL     1      50.079  57.011  21.665  1.00  0.00    +0.124 A 
ATOM     23  C   UNL     1      49.047  57.938  21.754  1.00  0.00    +0.039 A 
ATOM     24  F   UNL     1      51.060  57.031  22.577  1.00  0.00    -0.207 F 
ENDBRANCH  15  18
ENDBRANCH  12  14
ENDBRANCH   2  12
TORSDOF 6
ENDMDL
MODEL 5
REMARK VINA RESULT:    -7.201      2.879      8.364
REMARK INTER + INTRA:         -10.326
REMARK INTER:                  -9.834
REMARK INTRA:                  -0.492
REMARK UNBOUND:                -0.599
REMARK SMILES CC[C@@H](C)NC(=O)/C=C(\C)NNC(=O)c1cccc(F)c1
REMARK SMILES IDX 8 1 9 2 10 3 6 4 5 5 7 6 3 8 4 9 2 10 1 11 11 12 12 14 13 15
REMARK SMILES IDX 14 16 15 18 16 19 21 20 17 21 19 22 18 23 20 24
REMARK H PARENT 5 7 11 13 12 17
ROOT
ATOM      1  C   UNL     1      51.900  53.224  19.707  1.00  0.00    +0.093 C 
ATOM      2  C   UNL     1      50.841  53.050  18.890  1.00  0.00    +0.034 C 
ATOM      3  C   UNL     1      49.507  53.720  19.136  1.00  0.00    +0.066 C 
ENDROOT
BRANCH   1   4
ATOM      4  C   UNL     1      51.952  54.169  20.852  1.00  0.00    +0.245 C 
ATOM      5  N   UNL     1      51.990  55.483  20.448  1.00  0.00    -0.350 N 
ATOM      6  O   UNL     1      51.938  53.807  22.021  1.00  0.00    -0.270 OA
ATOM      7  H   UNL     1      51.915  55.703  19.465  1.00  0.00    +0.164 HD
BRANCH   5   8
ATOM      8  C   UNL     1      51.929  56.582  21.403  1.00  0.00    +0.079 C 
ATOM      9  C   UNL     1      50.471  56.891  21.746  1.00  0.00    +0.031 C 
BRANCH   8  10
ATOM     10  C   UNL     1      52.626  57.832  20.847  1.00  0.00    +0.021 C 
ATOM     11  C   UNL     1      54.140  57.773  21.000  1.00  0.00    +0.006 C 
ENDBRANCH   8  10
ENDBRANCH   5   8
ENDBRANCH   1   4
BRANCH   2  12
ATOM     12  N   UNL     1      50.915  52.176  17.804  1.00  0.00    -0.303 N 
ATOM     13  H   UNL     1      50.815  52.650  16.895  1.00  0.00    +0.187 HD
BRANCH  12  14
ATOM     14  N   UNL     1      50.197  50.970  17.789  1.00  0.00    -0.266 N 
ATOM     15  C   UNL     1      49.122  50.899  16.919  1.00  0.00    +0.269 C 
ATOM     16  O   UNL     1      48.853  51.792  16.119  1.00  0.00    -0.267 OA
ATOM     17  H   UNL     1      50.313  50.353  18.584  1.00  0.00    +0.191 HD
BRANCH  15  18
ATOM     18  C   UNL     1      48.267  49.685  17.016  1.00  0.00    +0.044 A 
ATOM     19  C   UNL     1      48.146  48.866  15.882  1.00  0.00    +0.014 A 
ATOM     20  C   UNL     1      47.609  49.330  18.197  1.00  0.00    +0.053 A 
ATOM     21  C   UNL     1      47.357  47.713  15.922  1.00  0.00    +0.004 A 
ATOM     22  C   UNL     1      46.829  48.179  18.221  1.00  0.00    +0.124 A 
ATOM     23  C   UNL     1      46.692  47.372  17.097  1.00  0.00    +0.039 A 
ATOM     24  F   UNL     1      46.198  47.840  19.354  1.00  0.00    -0.207 F 
ENDBRANCH  15  18
ENDBRANCH  12  14
ENDBRANCH   2  12
TORSDOF 6
ENDMDL
