MODEL 1
REMARK VINA RESULT:    -7.582      0.000      0.000
REMARK INTER + INTRA:          -9.368
REMARK INTER:                  -8.690
REMARK INTRA:                  -0.678
REMARK UNBOUND:                -0.678
REMARK SMILES CN(C)C(=O)[C@@H]1CCCN1c1cc2c(cc1N)CC(=O)N2
REMARK SMILES IDX 11 1 12 2 13 3 14 4 15 5 16 6 18 7 19 8 20 9 21 10 10 12
REMARK SMILES IDX 6 13 7 14 8 15 9 16 4 17 2 18 5 19 1 20 3 21 17 22
REMARK H PARENT 21 11 17 23 17 24
ROOT
ATOM      1  C   UNL     1      49.806  50.209  17.849  1.00  0.00    +0.063 A 
ATOM      2  C   UNL     1      48.541  49.860  18.350  1.00  0.00    +0.054 A 
ATOM      3  C   UNL     1      47.583  49.423  17.457  1.00  0.00    +0.047 A 
ATOM      4  C   UNL     1      47.818  49.316  16.089  1.00  0.00    -0.013 A 
ATOM      5  C   UNL     1      49.049  49.650  15.563  1.00  0.00    +0.034 A 
ATOM      6  C   UNL     1      50.039  50.120  16.439  1.00  0.00    +0.056 A 
ATOM      7  C   UNL     1      46.586  48.806  15.408  1.00  0.00    +0.138 C 
ATOM      8  C   UNL     1      45.619  48.632  16.584  1.00  0.00    +0.228 C 
ATOM      9  O   UNL     1      44.470  48.225  16.532  1.00  0.00    -0.274 OA
ATOM     10  N   UNL     1      46.288  49.021  17.738  1.00  0.00    -0.325 N 
ATOM     11  H   UNL     1      45.863  48.988  18.652  1.00  0.00    +0.169 HD
ENDROOT
BRANCH   1  12
ATOM     12  N   UNL     1      50.853  50.676  18.676  1.00  0.00    -0.358 N 
ATOM     13  C   UNL     1      50.447  51.880  19.482  1.00  0.00    +0.172 C 
ATOM     14  C   UNL     1      50.977  51.593  20.897  1.00  0.00    +0.037 C 
ATOM     15  C   UNL     1      51.053  50.079  20.963  1.00  0.00    +0.024 C 
ATOM     16  C   UNL     1      51.505  49.704  19.562  1.00  0.00    +0.117 C 
BRANCH  13  17
ATOM     17  C   UNL     1      51.100  53.177  18.941  1.00  0.00    +0.244 C 
ATOM     18  N   UNL     1      50.489  54.398  19.229  1.00  0.00    -0.347 N 
ATOM     19  O   UNL     1      52.159  53.128  18.304  1.00  0.00    -0.273 OA
ATOM     20  C   UNL     1      49.218  54.576  19.916  1.00  0.00    +0.146 C 
ATOM     21  C   UNL     1      51.106  55.619  18.733  1.00  0.00    +0.146 C 
ENDBRANCH  13  17
ENDBRANCH   1  12
BRANCH   6  22
ATOM     22  N   UNL     1      51.338  50.351  15.915  1.00  0.00    -0.397 N 
ATOM     23  H   UNL     1      52.035  49.975  16.553  1.00  0.00    +0.156 HD
ATOM     24  H   UNL     1      51.501  51.367  15.877  1.00  0.00    +0.156 HD
ENDBRANCH   6  22
TORSDOF 3
ENDMDL
MODEL 2
REMARK VINA RESULT:    -7.411      1.789      2.080
REMARK INTER + INTRA:          -9.172
REMARK INTER:                  -8.659
REMARK INTRA:                  -0.513
REMARK UNBOUND:                -0.678
REMARK SMILES CN(C)C(=O)[C@@H]1CCCN1c1cc2c(cc1N)CC(=O)N2
REMARK SMILES IDX 11 1 12 2 13 3 14 4 15 5 16 6 18 7 19 8 20 9 21 10 10 12
REMARK SMILES IDX 6 13 7 14 8 15 9 16 4 17 2 18 5 19 1 20 3 21 17 22
REMARK H PARENT 21 11 17 23 17 24
ROOT
ATOM      1  C   UNL     1      49.401  51.019  18.022  1.00  0.00    +0.063 A 
ATOM      2  C   UNL     1      49.032  49.788  18.588  1.00  0.00    +0.054 A 
ATOM      3  C   UNL     1      47.749  49.328  18.369  1.00  0.00    +0.047 A 
ATOM      4  C   UNL     1      46.812  50.030  17.617  1.00  0.00    -0.013 A 
ATOM      5  C   UNL     1      47.141  51.243  17.045  1.00  0.00    +0.034 A 
ATOM      6  C   UNL     1      48.430  51.752  17.267  1.00  0.00    +0.056 A 
ATOM      7  C   UNL     1      45.530  49.257  17.565  1.00  0.00    +0.138 C 
ATOM      8  C   UNL     1      45.874  48.012  18.390  1.00  0.00    +0.228 C 
ATOM      9  O   UNL     1      45.139  47.069  18.630  1.00  0.00    -0.274 OA
ATOM     10  N   UNL     1      47.188  48.145  18.822  1.00  0.00    -0.325 N 
ATOM     11  H   UNL     1      47.652  47.443  19.378  1.00  0.00    +0.169 HD
ENDROOT
BRANCH   1  12
ATOM     12  N   UNL     1      50.686  51.584  18.192  1.00  0.00    -0.358 N 
ATOM     13  C   UNL     1      50.917  52.057  19.601  1.00  0.00    +0.172 C 
ATOM     14  C   UNL     1      52.329  51.557  19.949  1.00  0.00    +0.037 C 
ATOM     15  C   UNL     1      52.531  50.359  19.042  1.00  0.00    +0.024 C 
ATOM     16  C   UNL     1      51.841  50.789  17.758  1.00  0.00    +0.117 C 
BRANCH  13  17
ATOM     17  C   UNL     1      50.880  53.603  19.699  1.00  0.00    +0.244 C 
ATOM     18  N   UNL     1      51.121  54.197  20.938  1.00  0.00    -0.347 N 
ATOM     19  O   UNL     1      50.679  54.291  18.690  1.00  0.00    -0.273 OA
ATOM     20  C   UNL     1      51.310  53.494  22.199  1.00  0.00    +0.146 C 
ATOM     21  C   UNL     1      51.099  55.649  21.031  1.00  0.00    +0.146 C 
ENDBRANCH  13  17
ENDBRANCH   1  12
BRANCH   6  22
ATOM     22  N   UNL     1      48.804  52.938  16.583  1.00  0.00    -0.397 N 
ATOM     23  H   UNL     1      48.713  52.797  15.580  1.00  0.00    +0.156 HD
ATOM     24  H   UNL     1      49.803  53.117  16.759  1.00  0.00    +0.156 HD
ENDBRANCH   6  22
TORSDOF 3
ENDMDL
MODEL 3
REMARK VINA RESULT:    -7.127      1.950      6.185
REMARK INTER + INTRA:          -8.847
REMARK INTER:                  -8.146
REMARK INTRA:                  -0.701
REMARK UNBOUND:                -0.678
REMARK SMILES CN(C)C(=O)[C@@H]1CCCN1c1cc2c(cc1N)CC(=O)N2
REMARK SMILES IDX 11 1 12 2 13 3 14 4 15 5 16 6 18 7 19 8 20 9 21 10 10 12
REMARK SMILES IDX 6 13 7 14 8 15 9 16 4 17 2 18 5 19 1 20 3 21 17 22
REMARK H PARENT 21 11 17 23 17 24
ROOT
ATOM      1  C   UNL     1      49.514  50.980  17.365  1.00  0.00    +0.063 A 
ATOM      2  C   UNL     1      48.942  52.221  17.040  1.00  0.00    +0.054 A 
ATOM      3  C   UNL     1      49.165  53.286  17.891  1.00  0.00    +0.047 A 
ATOM      4  C   UNL     1      49.927  53.179  19.051  1.00  0.00    -0.013 A 
ATOM      5  C   UNL     1      50.504  51.975  19.401  1.00  0.00    +0.034 A 
ATOM      6  C   UNL     1      50.278  50.866  18.571  1.00  0.00    +0.056 A 
ATOM      7  C   UNL     1      49.981  54.508  19.739  1.00  0.00    +0.138 C 
ATOM      8  C   UNL     1      49.147  55.388  18.801  1.00  0.00    +0.228 C 
ATOM      9  O   UNL     1      48.905  56.575  18.935  1.00  0.00    -0.274 OA
ATOM     10  N   UNL     1      48.709  54.586  17.753  1.00  0.00    -0.325 N 
ATOM     11  H   UNL     1      48.146  54.940  16.996  1.00  0.00    +0.169 HD
ENDROOT
BRANCH   1  12
ATOM     12  N   UNL     1      49.340  49.826  16.567  1.00  0.00    -0.358 N 
ATOM     13  C   UNL     1      47.888  49.520  16.319  1.00  0.00    +0.172 C 
ATOM     14  C   UNL     1      47.815  49.190  14.819  1.00  0.00    +0.037 C 
ATOM     15  C   UNL     1      49.001  49.920  14.221  1.00  0.00    +0.024 C 
ATOM     16  C   UNL     1      50.067  49.765  15.294  1.00  0.00    +0.117 C 
BRANCH  13  17
ATOM     17  C   UNL     1      47.414  48.294  17.140  1.00  0.00    +0.244 C 
ATOM     18  N   UNL     1      46.098  48.273  17.603  1.00  0.00    -0.347 N 
ATOM     19  O   UNL     1      48.177  47.342  17.343  1.00  0.00    -0.273 OA
ATOM     20  C   UNL     1      45.132  49.354  17.477  1.00  0.00    +0.146 C 
ATOM     21  C   UNL     1      45.646  47.118  18.363  1.00  0.00    +0.146 C 
ENDBRANCH  13  17
ENDBRANCH   1  12
BRANCH   6  22
ATOM     22  N   UNL     1      50.967  49.661  18.868  1.00  0.00    -0.397 N 
ATOM     23  H   UNL     1      50.314  48.978  19.243  1.00  0.00    +0.156 HD
ATOM     24  H   UNL     1      51.649  49.848  19.617  1.00  0.00    +0.156 HD
ENDBRANCH   6  22
TORSDOF 3
ENDMDL
MODEL 4
REMARK VINA RESULT:    -6.988      2.933      6.713
REMARK INTER + INTRA:          -8.687
REMARK INTER:                  -8.092
REMARK INTRA:                  -0.595
REMARK UNBOUND:                -0.678
REMARK SMILES CN(C)C(=O)[C@@H]1CCCN1c1cc2c(cc1N)CC(=O)N2
REMARK SMILES IDX 11 1 12 2 13 3 14 4 15 5 16 6 18 7 19 8 20 9 21 10 10 12
REMARK SMILES IDX 6 13 7 14 8 15 9 16 4 17 2 18 5 19 1 20 3 21 17 22
REMARK H PARENT 21 11 17 23 17 24
ROOT
ATOM      1  C   UNL     1      50.161  54.138  18.909  1.00  0.00    +0.063 A 
ATOM      2  C   UNL     1      49.124  54.938  19.414  1.00  0.00    +0.054 A 
ATOM      3  C   UNL     1      49.451  55.953  20.292  1.00  0.00    +0.047 A 
ATOM      4  C   UNL     1      50.758  56.211  20.695  1.00  0.00    -0.013 A 
ATOM      5  C   UNL     1      51.802  55.444  20.218  1.00  0.00    +0.034 A 
ATOM      6  C   UNL     1      51.503  54.390  19.342  1.00  0.00    +0.056 A 
ATOM      7  C   UNL     1      50.771  57.376  21.636  1.00  0.00    +0.138 C 
ATOM      8  C   UNL     1      49.286  57.747  21.706  1.00  0.00    +0.228 C 
ATOM      9  O   UNL     1      48.789  58.654  22.351  1.00  0.00    -0.274 OA
ATOM     10  N   UNL     1      48.593  56.859  20.892  1.00  0.00    -0.325 N 
ATOM     11  H   UNL     1      47.594  56.904  20.763  1.00  0.00    +0.169 HD
ENDROOT
BRANCH   1  12
ATOM     12  N   UNL     1      49.934  53.068  18.012  1.00  0.00    -0.358 N 
ATOM     13  C   UNL     1      49.715  51.763  18.727  1.00  0.00    +0.172 C 
ATOM     14  C   UNL     1      48.509  51.130  18.015  1.00  0.00    +0.037 C 
ATOM     15  C   UNL     1      47.761  52.313  17.431  1.00  0.00    +0.024 C 
ATOM     16  C   UNL     1      48.885  53.241  17.000  1.00  0.00    +0.117 C 
BRANCH  13  17
ATOM     17  C   UNL     1      50.942  50.826  18.595  1.00  0.00    +0.244 C 
ATOM     18  N   UNL     1      51.625  50.457  19.755  1.00  0.00    -0.347 N 
ATOM     19  O   UNL     1      51.279  50.386  17.489  1.00  0.00    -0.273 OA
ATOM     20  C   UNL     1      51.358  50.954  21.097  1.00  0.00    +0.146 C 
ATOM     21  C   UNL     1      52.769  49.567  19.636  1.00  0.00    +0.146 C 
ENDBRANCH  13  17
ENDBRANCH   1  12
BRANCH   6  22
ATOM     22  N   UNL     1      52.586  53.678  18.761  1.00  0.00    -0.397 N 
ATOM     23  H   UNL     1      53.454  53.946  19.218  1.00  0.00    +0.156 HD
ATOM     24  H   UNL     1      52.678  53.967  17.777  1.00  0.00    +0.156 HD
ENDBRANCH   6  22
TORSDOF 3
ENDMDL
MODEL 5
REMARK VINA RESULT:    -6.779      2.414      6.710
REMARK INTER + INTRA:          -8.447
REMARK INTER:                  -7.815
REMARK INTRA:                  -0.632
REMARK UNBOUND:                -0.678
REMARK SMILES CN(C)C(=O)[C@@H]1CCCN1c1cc2c(cc1N)CC(=O)N2
REMARK SMILES IDX 11 1 12 2 13 3 14 4 15 5 16 6 18 7 19 8 20 9 21 10 10 12
REMARK SMILES IDX 6 13 7 14 8 15 9 16 4 17 2 18 5 19 1 20 3 21 17 22
REMARK H PARENT 21 11 17 23 17 24
ROOT
ATOM      1  C   UNL     1      51.502  52.068  19.760  1.00  0.00    +0.063 A 
ATOM      2  C   UNL     1      51.558  53.365  19.225  1.00  0.00    +0.054 A 
ATOM      3  C   UNL     1      51.548  54.434  20.099  1.00  0.00    +0.047 A 
ATOM      4  C   UNL     1      51.484  54.278  21.481  1.00  0.00    -0.013 A 
ATOM      5  C   UNL     1      51.428  53.018  22.042  1.00  0.00    +0.034 A 
ATOM      6  C   UNL     1      51.413  51.910  21.181  1.00  0.00    +0.056 A 
ATOM      7  C   UNL     1      51.501  55.625  22.138  1.00  0.00    +0.138 C 
ATOM      8  C   UNL     1      51.591  56.567  20.933  1.00  0.00    +0.228 C 
ATOM      9  O   UNL     1      51.641  57.785  20.959  1.00  0.00    -0.274 OA
ATOM     10  N   UNL     1      51.608  55.781  19.786  1.00  0.00    -0.325 N 
ATOM     11  H   UNL     1      51.674  56.172  18.859  1.00  0.00    +0.169 HD
ENDROOT
BRANCH   1  12
ATOM     12  N   UNL     1      51.498  50.907  18.953  1.00  0.00    -0.358 N 
ATOM     13  C   UNL     1      50.292  50.843  18.055  1.00  0.00    +0.172 C 
ATOM     14  C   UNL     1      50.852  50.423  16.687  1.00  0.00    +0.037 C 
ATOM     15  C   UNL     1      52.296  50.888  16.720  1.00  0.00    +0.024 C 
ATOM     16  C   UNL     1      52.700  50.626  18.161  1.00  0.00    +0.117 C 
BRANCH  13  17
ATOM     17  C   UNL     1      49.272  49.784  18.542  1.00  0.00    +0.244 C 
ATOM     18  N   UNL     1      47.969  49.837  18.044  1.00  0.00    -0.347 N 
ATOM     19  O   UNL     1      49.620  48.890  19.324  1.00  0.00    -0.273 OA
ATOM     20  C   UNL     1      47.431  50.869  17.170  1.00  0.00    +0.146 C 
ATOM     21  C   UNL     1      47.012  48.835  18.489  1.00  0.00    +0.146 C 
ENDBRANCH  13  17
ENDBRANCH   1  12
BRANCH   6  22
ATOM     22  N   UNL     1      51.474  50.616  21.760  1.00  0.00    -0.397 N 
ATOM     23  H   UNL     1      50.580  50.390  22.188  1.00  0.00    +0.156 HD
ATOM     24  H   UNL     1      52.163  50.631  22.527  1.00  0.00    +0.156 HD
ENDBRANCH   6  22
TORSDOF 3
ENDMDL
