MODEL 1
REMARK VINA RESULT:    -7.663      0.000      0.000
REMARK INTER + INTRA:         -10.717
REMARK INTER:                 -10.126
REMARK INTRA:                  -0.590
REMARK UNBOUND:                -0.590
REMARK SMILES CO[C@H]1C[NH2+]C[C@@H]1NS(=O)(=O)c1cccc(S(N)(=O)=O)c1
REMARK SMILES IDX 9 1 10 2 11 3 8 4 7 6 3 7 4 8 5 9 6 10 2 13 1 14 12 15 13 16
REMARK SMILES IDX 21 17 14 18 16 19 15 20 17 21 19 22 20 23 18 24
REMARK H PARENT 8 5 5 11 5 12 18 25 18 26
ROOT
ATOM      1  S   UNL     1      50.566  54.416  18.931  1.00  0.00    +0.241 S 
ATOM      2  O   UNL     1      49.428  54.565  18.051  1.00  0.00    -0.207 OA
ATOM      3  O   UNL     1      51.904  54.169  18.459  1.00  0.00    -0.207 OA
ENDROOT
BRANCH   1   4
ATOM      4  N   UNL     1      50.166  53.144  19.968  1.00  0.00    -0.200 NA
ATOM      5  H   UNL     1      49.168  52.909  19.919  1.00  0.00    +0.142 HD
BRANCH   4   6
ATOM      6  C   UNL     1      51.107  52.015  20.110  1.00  0.00    +0.159 C 
ATOM      7  C   UNL     1      50.554  50.796  19.360  1.00  0.00    +0.196 C 
ATOM      8  C   UNL     1      51.321  49.638  19.995  1.00  0.00    +0.294 C 
ATOM      9  N   UNL     1      51.507  50.026  21.431  1.00  0.00    -0.343 N 
ATOM     10  C   UNL     1      51.224  51.500  21.550  1.00  0.00    +0.283 C 
ATOM     11  H   UNL     1      50.870  49.500  22.046  1.00  0.00    +0.346 HD
ATOM     12  H   UNL     1      52.462  49.807  21.749  1.00  0.00    +0.346 HD
BRANCH   7  13
ATOM     13  O   UNL     1      50.840  50.958  17.975  1.00  0.00    -0.374 OA
ATOM     14  C   UNL     1      49.698  50.806  17.137  1.00  0.00    +0.195 C 
ENDBRANCH   7  13
ENDBRANCH   4   6
ENDBRANCH   1   4
BRANCH   1  15
ATOM     15  C   UNL     1      50.620  55.816  20.016  1.00  0.00    +0.083 A 
ATOM     16  C   UNL     1      49.443  56.302  20.593  1.00  0.00    +0.022 A 
ATOM     17  C   UNL     1      51.854  56.407  20.301  1.00  0.00    +0.043 A 
ATOM     18  C   UNL     1      49.503  57.379  21.481  1.00  0.00    +0.003 A 
ATOM     19  C   UNL     1      51.898  57.480  21.195  1.00  0.00    +0.083 A 
ATOM     20  C   UNL     1      50.732  57.964  21.794  1.00  0.00    +0.022 A 
BRANCH  19  21
ATOM     21  S   UNL     1      53.478  58.160  21.640  1.00  0.00    +0.238 S 
ATOM     22  O   UNL     1      54.098  57.265  22.586  1.00  0.00    -0.207 OA
ATOM     23  O   UNL     1      54.125  58.566  20.414  1.00  0.00    -0.207 OA
BRANCH  21  24
ATOM     24  N   UNL     1      53.041  59.534  22.495  1.00  0.00    -0.225 NA
ATOM     25  H   UNL     1      53.419  60.406  22.127  1.00  0.00    +0.137 HD
ATOM     26  H   UNL     1      52.023  59.572  22.585  1.00  0.00    +0.137 HD
ENDBRANCH  21  24
ENDBRANCH  19  21
ENDBRANCH   1  15
TORSDOF 6
ENDMDL
MODEL 2
REMARK VINA RESULT:    -7.522      1.744      2.262
REMARK INTER + INTRA:         -10.530
REMARK INTER:                 -10.123
REMARK INTRA:                  -0.407
REMARK UNBOUND:                -0.590
REMARK SMILES CO[C@H]1C[NH2+]C[C@@H]1NS(=O)(=O)c1cccc(S(N)(=O)=O)c1
REMARK SMILES IDX 9 1 10 2 11 3 8 4 7 6 3 7 4 8 5 9 6 10 2 13 1 14 12 15 13 16
REMARK SMILES IDX 21 17 14 18 16 19 15 20 17 21 19 22 20 23 18 24
REMARK H PARENT 8 5 5 11 5 12 18 25 18 26
ROOT
ATOM      1  S   UNL     1      51.908  53.430  19.773  1.00  0.00    +0.241 S 
ATOM      2  O   UNL     1      52.668  53.613  18.556  1.00  0.00    -0.207 OA
ATOM      3  O   UNL     1      52.355  52.608  20.868  1.00  0.00    -0.207 OA
ENDROOT
BRANCH   1   4
ATOM      4  N   UNL     1      50.411  52.823  19.280  1.00  0.00    -0.200 NA
ATOM      5  H   UNL     1      49.739  53.573  19.085  1.00  0.00    +0.142 HD
BRANCH   4   6
ATOM      6  C   UNL     1      50.377  51.651  18.382  1.00  0.00    +0.159 C 
ATOM      7  C   UNL     1      48.985  51.538  17.747  1.00  0.00    +0.196 C 
ATOM      8  C   UNL     1      48.944  50.082  17.290  1.00  0.00    +0.294 C 
ATOM      9  N   UNL     1      49.722  49.321  18.320  1.00  0.00    -0.343 N 
ATOM     10  C   UNL     1      50.519  50.315  19.123  1.00  0.00    +0.283 C 
ATOM     11  H   UNL     1      49.097  48.791  18.945  1.00  0.00    +0.346 HD
ATOM     12  H   UNL     1      50.340  48.627  17.874  1.00  0.00    +0.346 HD
BRANCH   7  13
ATOM     13  O   UNL     1      48.913  52.462  16.667  1.00  0.00    -0.374 OA
ATOM     14  C   UNL     1      47.636  53.079  16.531  1.00  0.00    +0.195 C 
ENDBRANCH   7  13
ENDBRANCH   4   6
ENDBRANCH   1   4
BRANCH   1  15
ATOM     15  C   UNL     1      51.499  55.027  20.423  1.00  0.00    +0.083 A 
ATOM     16  C   UNL     1      50.168  55.349  20.704  1.00  0.00    +0.022 A 
ATOM     17  C   UNL     1      52.525  55.944  20.668  1.00  0.00    +0.043 A 
ATOM     18  C   UNL     1      49.861  56.596  21.256  1.00  0.00    +0.003 A 
ATOM     19  C   UNL     1      52.203  57.184  21.225  1.00  0.00    +0.083 A 
ATOM     20  C   UNL     1      50.878  57.512  21.530  1.00  0.00    +0.022 A 
BRANCH  19  21
ATOM     21  S   UNL     1      53.517  58.306  21.638  1.00  0.00    +0.238 S 
ATOM     22  O   UNL     1      54.425  58.360  20.518  1.00  0.00    -0.207 OA
ATOM     23  O   UNL     1      52.905  59.487  22.201  1.00  0.00    -0.207 OA
BRANCH  21  24
ATOM     24  N   UNL     1      54.313  57.481  22.861  1.00  0.00    -0.225 NA
ATOM     25  H   UNL     1      54.258  56.465  22.799  1.00  0.00    +0.137 HD
ATOM     26  H   UNL     1      55.282  57.804  22.918  1.00  0.00    +0.137 HD
ENDBRANCH  21  24
ENDBRANCH  19  21
ENDBRANCH   1  15
TORSDOF 6
ENDMDL
MODEL 3
REMARK VINA RESULT:    -7.154      5.072      9.261
REMARK INTER + INTRA:         -10.044
REMARK INTER:                  -9.438
REMARK INTRA:                  -0.606
REMARK UNBOUND:                -0.590
REMARK SMILES CO[C@H]1C[NH2+]C[C@@H]1NS(=O)(=O)c1cccc(S(N)(=O)=O)c1
REMARK SMILES IDX 9 1 10 2 11 3 8 4 7 6 3 7 4 8 5 9 6 10 2 13 1 14 12 15 13 16
REMARK SMILES IDX 21 17 14 18 16 19 15 20 17 21 19 22 20 23 18 24
REMARK H PARENT 8 5 5 11 5 12 18 25 18 26
ROOT
ATOM      1  S   UNL     1      49.043  50.252  17.002  1.00  0.00    +0.241 S 
ATOM      2  O   UNL     1      49.420  50.105  15.614  1.00  0.00    -0.207 OA
ATOM      3  O   UNL     1      48.675  51.513  17.592  1.00  0.00    -0.207 OA
ENDROOT
BRANCH   1   4
ATOM      4  N   UNL     1      50.355  49.658  17.886  1.00  0.00    -0.200 NA
ATOM      5  H   UNL     1      51.085  49.273  17.277  1.00  0.00    +0.142 HD
BRANCH   4   6
ATOM      6  C   UNL     1      50.809  50.404  19.077  1.00  0.00    +0.159 C 
ATOM      7  C   UNL     1      52.342  50.482  19.073  1.00  0.00    +0.196 C 
ATOM      8  C   UNL     1      52.663  50.796  20.532  1.00  0.00    +0.294 C 
ATOM      9  N   UNL     1      51.625  50.072  21.333  1.00  0.00    -0.343 N 
ATOM     10  C   UNL     1      50.512  49.679  20.396  1.00  0.00    +0.283 C 
ATOM     11  H   UNL     1      52.016  49.230  21.779  1.00  0.00    +0.346 HD
ATOM     12  H   UNL     1      51.270  50.665  22.097  1.00  0.00    +0.346 HD
BRANCH   7  13
ATOM     13  O   UNL     1      52.731  51.520  18.181  1.00  0.00    -0.374 OA
ATOM     14  C   UNL     1      52.161  52.787  18.500  1.00  0.00    +0.195 C 
ENDBRANCH   7  13
ENDBRANCH   4   6
ENDBRANCH   1   4
BRANCH   1  15
ATOM     15  C   UNL     1      47.758  49.086  17.360  1.00  0.00    +0.083 A 
ATOM     16  C   UNL     1      47.375  48.849  18.684  1.00  0.00    +0.022 A 
ATOM     17  C   UNL     1      47.123  48.429  16.302  1.00  0.00    +0.043 A 
ATOM     18  C   UNL     1      46.330  47.960  18.952  1.00  0.00    +0.003 A 
ATOM     19  C   UNL     1      46.077  47.547  16.586  1.00  0.00    +0.083 A 
ATOM     20  C   UNL     1      45.670  47.316  17.903  1.00  0.00    +0.022 A 
BRANCH  19  21
ATOM     21  S   UNL     1      45.199  46.797  15.236  1.00  0.00    +0.238 S 
ATOM     22  O   UNL     1      45.454  47.577  14.050  1.00  0.00    -0.207 OA
ATOM     23  O   UNL     1      45.454  45.377  15.302  1.00  0.00    -0.207 OA
BRANCH  21  24
ATOM     24  N   UNL     1      43.601  47.074  15.659  1.00  0.00    -0.225 NA
ATOM     25  H   UNL     1      43.194  46.375  16.279  1.00  0.00    +0.137 HD
ATOM     26  H   UNL     1      43.506  48.018  16.041  1.00  0.00    +0.137 HD
ENDBRANCH  21  24
ENDBRANCH  19  21
ENDBRANCH   1  15
TORSDOF 6
ENDMDL
MODEL 4
REMARK VINA RESULT:    -7.104      2.531      7.272
REMARK INTER + INTRA:          -9.979
REMARK INTER:                  -9.325
REMARK INTRA:                  -0.654
REMARK UNBOUND:                -0.590
REMARK SMILES CO[C@H]1C[NH2+]C[C@@H]1NS(=O)(=O)c1cccc(S(N)(=O)=O)c1
REMARK SMILES IDX 9 1 10 2 11 3 8 4 7 6 3 7 4 8 5 9 6 10 2 13 1 14 12 15 13 16
REMARK SMILES IDX 21 17 14 18 16 19 15 20 17 21 19 22 20 23 18 24
REMARK H PARENT 8 5 5 11 5 12 18 25 18 26
ROOT
ATOM      1  S   UNL     1      51.695  53.316  19.610  1.00  0.00    +0.241 S 
ATOM      2  O   UNL     1      52.393  52.229  20.261  1.00  0.00    -0.207 OA
ATOM      3  O   UNL     1      52.343  54.265  18.743  1.00  0.00    -0.207 OA
ENDROOT
BRANCH   1   4
ATOM      4  N   UNL     1      50.977  54.198  20.859  1.00  0.00    -0.200 NA
ATOM      5  H   UNL     1      51.270  53.862  21.783  1.00  0.00    +0.142 HD
BRANCH   4   6
ATOM      6  C   UNL     1      50.817  55.657  20.702  1.00  0.00    +0.159 C 
ATOM      7  C   UNL     1      51.329  56.362  21.965  1.00  0.00    +0.196 C 
ATOM      8  C   UNL     1      50.657  57.731  21.878  1.00  0.00    +0.294 C 
ATOM      9  N   UNL     1      49.319  57.477  21.255  1.00  0.00    -0.343 N 
ATOM     10  C   UNL     1      49.350  56.103  20.638  1.00  0.00    +0.283 C 
ATOM     11  H   UNL     1      48.565  57.525  21.955  1.00  0.00    +0.346 HD
ATOM     12  H   UNL     1      49.101  58.194  20.547  1.00  0.00    +0.346 HD
BRANCH   7  13
ATOM     13  O   UNL     1      52.749  56.434  21.889  1.00  0.00    -0.374 OA
ATOM     14  C   UNL     1      53.221  57.164  20.760  1.00  0.00    +0.195 C 
ENDBRANCH   7  13
ENDBRANCH   4   6
ENDBRANCH   1   4
BRANCH   1  15
ATOM     15  C   UNL     1      50.304  52.645  18.741  1.00  0.00    +0.083 A 
ATOM     16  C   UNL     1      49.494  53.480  17.965  1.00  0.00    +0.022 A 
ATOM     17  C   UNL     1      50.046  51.274  18.826  1.00  0.00    +0.043 A 
ATOM     18  C   UNL     1      48.425  52.934  17.249  1.00  0.00    +0.003 A 
ATOM     19  C   UNL     1      48.978  50.742  18.100  1.00  0.00    +0.083 A 
ATOM     20  C   UNL     1      48.171  51.562  17.304  1.00  0.00    +0.022 A 
BRANCH  19  21
ATOM     21  S   UNL     1      48.717  48.985  18.121  1.00  0.00    +0.238 S 
ATOM     22  O   UNL     1      47.508  48.723  18.863  1.00  0.00    -0.207 OA
ATOM     23  O   UNL     1      48.921  48.510  16.773  1.00  0.00    -0.207 OA
BRANCH  21  24
ATOM     24  N   UNL     1      49.990  48.453  19.074  1.00  0.00    -0.225 NA
ATOM     25  H   UNL     1      49.732  47.786  19.799  1.00  0.00    +0.137 HD
ATOM     26  H   UNL     1      50.737  48.090  18.476  1.00  0.00    +0.137 HD
ENDBRANCH  21  24
ENDBRANCH  19  21
ENDBRANCH   1  15
TORSDOF 6
ENDMDL
MODEL 5
REMARK VINA RESULT:    -7.040      4.521      6.489
REMARK INTER + INTRA:          -9.894
REMARK INTER:                  -9.375
REMARK INTRA:                  -0.519
REMARK UNBOUND:                -0.590
REMARK SMILES CO[C@H]1C[NH2+]C[C@@H]1NS(=O)(=O)c1cccc(S(N)(=O)=O)c1
REMARK SMILES IDX 9 1 10 2 11 3 8 4 7 6 3 7 4 8 5 9 6 10 2 13 1 14 12 15 13 16
REMARK SMILES IDX 21 17 14 18 16 19 15 20 17 21 19 22 20 23 18 24
REMARK H PARENT 8 5 5 11 5 12 18 25 18 26
ROOT
ATOM      1  S   UNL     1      48.555  50.100  16.694  1.00  0.00    +0.241 S 
ATOM      2  O   UNL     1      48.196  50.797  15.479  1.00  0.00    -0.207 OA
ATOM      3  O   UNL     1      49.340  48.893  16.711  1.00  0.00    -0.207 OA
ENDROOT
BRANCH   1   4
ATOM      4  N   UNL     1      47.090  49.746  17.455  1.00  0.00    -0.200 NA
ATOM      5  H   UNL     1      46.435  50.535  17.413  1.00  0.00    +0.142 HD
BRANCH   4   6
ATOM      6  C   UNL     1      46.513  48.395  17.302  1.00  0.00    +0.159 C 
ATOM      7  C   UNL     1      45.298  48.465  16.367  1.00  0.00    +0.196 C 
ATOM      8  C   UNL     1      44.545  47.180  16.703  1.00  0.00    +0.294 C 
ATOM      9  N   UNL     1      44.764  46.963  18.169  1.00  0.00    -0.343 N 
ATOM     10  C   UNL     1      45.909  47.842  18.599  1.00  0.00    +0.283 C 
ATOM     11  H   UNL     1      43.922  47.200  18.712  1.00  0.00    +0.346 HD
ATOM     12  H   UNL     1      44.966  45.972  18.368  1.00  0.00    +0.346 HD
BRANCH   7  13
ATOM     13  O   UNL     1      45.771  48.498  15.025  1.00  0.00    -0.374 OA
ATOM     14  C   UNL     1      45.376  47.365  14.256  1.00  0.00    +0.195 C 
ENDBRANCH   7  13
ENDBRANCH   4   6
ENDBRANCH   1   4
BRANCH   1  15
ATOM     15  C   UNL     1      49.313  51.259  17.800  1.00  0.00    +0.083 A 
ATOM     16  C   UNL     1      48.965  52.612  17.744  1.00  0.00    +0.022 A 
ATOM     17  C   UNL     1      50.240  50.796  18.738  1.00  0.00    +0.043 A 
ATOM     18  C   UNL     1      49.536  53.510  18.650  1.00  0.00    +0.003 A 
ATOM     19  C   UNL     1      50.798  51.705  19.641  1.00  0.00    +0.083 A 
ATOM     20  C   UNL     1      50.445  53.057  19.608  1.00  0.00    +0.022 A 
BRANCH  19  21
ATOM     21  S   UNL     1      51.892  51.098  20.901  1.00  0.00    +0.238 S 
ATOM     22  O   UNL     1      53.059  50.551  20.254  1.00  0.00    -0.207 OA
ATOM     23  O   UNL     1      51.975  52.120  21.918  1.00  0.00    -0.207 OA
BRANCH  21  24
ATOM     24  N   UNL     1      51.032  49.798  21.518  1.00  0.00    -0.225 NA
ATOM     25  H   UNL     1      50.372  50.034  22.258  1.00  0.00    +0.137 HD
ATOM     26  H   UNL     1      50.577  49.294  20.753  1.00  0.00    +0.137 HD
ENDBRANCH  21  24
ENDBRANCH  19  21
ENDBRANCH   1  15
TORSDOF 6
ENDMDL
