MODEL 1
REMARK VINA RESULT:    -7.063      0.000      0.000
REMARK INTER + INTRA:          -9.589
REMARK INTER:                  -9.128
REMARK INTRA:                  -0.461
REMARK UNBOUND:                -0.461
REMARK SMILES CO[C@H]1C[NH2+]C[C@@H]1NC(=O)CCC1CCCCC1
REMARK SMILES IDX 8 1 9 2 10 3 7 5 3 6 4 7 5 8 6 9 2 12 1 13 11 14 12 15 13 16
REMARK SMILES IDX 14 17 18 18 15 19 17 20 16 21
REMARK H PARENT 8 4 5 10 5 11
ROOT
ATOM      1  N   UNL     1      51.703  52.054  20.171  1.00  0.00    -0.345 N 
ATOM      2  C   UNL     1      51.969  53.377  19.846  1.00  0.00    +0.220 C 
ATOM      3  O   UNL     1      52.321  53.702  18.720  1.00  0.00    -0.275 OA
ATOM      4  H   UNL     1      51.087  51.953  20.975  1.00  0.00    +0.164 HD
ENDROOT
BRANCH   1   5
ATOM      5  C   UNL     1      51.569  51.070  19.089  1.00  0.00    +0.171 C 
ATOM      6  C   UNL     1      50.391  50.120  19.339  1.00  0.00    +0.200 C 
ATOM      7  C   UNL     1      50.977  49.133  20.354  1.00  0.00    +0.295 C 
ATOM      8  N   UNL     1      52.415  48.967  19.949  1.00  0.00    -0.342 N 
ATOM      9  C   UNL     1      52.739  50.069  18.969  1.00  0.00    +0.288 C 
ATOM     10  H   UNL     1      52.556  48.056  19.493  1.00  0.00    +0.346 HD
ATOM     11  H   UNL     1      53.041  49.013  20.762  1.00  0.00    +0.346 HD
BRANCH   6  12
ATOM     12  O   UNL     1      50.061  49.387  18.153  1.00  0.00    -0.373 OA
ATOM     13  C   UNL     1      48.803  48.721  18.241  1.00  0.00    +0.195 C 
ENDBRANCH   6  12
ENDBRANCH   1   5
BRANCH   2  14
ATOM     14  C   UNL     1      51.838  54.330  21.021  1.00  0.00    +0.100 C 
BRANCH  14  15
ATOM     15  C   UNL     1      50.493  55.059  21.067  1.00  0.00    +0.013 C 
BRANCH  15  16
ATOM     16  C   UNL     1      50.406  56.316  20.167  1.00  0.00    -0.011 C 
ATOM     17  C   UNL     1      50.563  57.598  21.006  1.00  0.00    +0.003 C 
ATOM     18  C   UNL     1      49.111  56.398  19.340  1.00  0.00    +0.003 C 
ATOM     19  C   UNL     1      49.338  57.905  21.865  1.00  0.00    +0.000 C 
ATOM     20  C   UNL     1      47.877  56.694  20.191  1.00  0.00    +0.000 C 
ATOM     21  C   UNL     1      48.063  57.955  21.030  1.00  0.00    +0.000 C 
ENDBRANCH  15  16
ENDBRANCH  14  15
ENDBRANCH   2  14
TORSDOF 5
ENDMDL
MODEL 2
REMARK VINA RESULT:    -7.016      3.675      6.638
REMARK INTER + INTRA:          -9.527
REMARK INTER:                  -9.059
REMARK INTRA:                  -0.468
REMARK UNBOUND:                -0.461
REMARK SMILES CO[C@H]1C[NH2+]C[C@@H]1NC(=O)CCC1CCCCC1
REMARK SMILES IDX 8 1 9 2 10 3 7 5 3 6 4 7 5 8 6 9 2 12 1 13 11 14 12 15 13 16
REMARK SMILES IDX 14 17 18 18 15 19 17 20 16 21
REMARK H PARENT 8 4 5 10 5 11
ROOT
ATOM      1  N   UNL     1      50.067  50.008  18.603  1.00  0.00    -0.345 N 
ATOM      2  C   UNL     1      49.644  51.163  17.960  1.00  0.00    +0.220 C 
ATOM      3  O   UNL     1      49.474  52.210  18.569  1.00  0.00    -0.275 OA
ATOM      4  H   UNL     1      50.517  49.342  17.979  1.00  0.00    +0.164 HD
ENDROOT
BRANCH   1   5
ATOM      5  C   UNL     1      50.588  50.108  19.973  1.00  0.00    +0.171 C 
ATOM      6  C   UNL     1      51.942  50.829  20.006  1.00  0.00    +0.200 C 
ATOM      7  C   UNL     1      52.911  49.726  19.568  1.00  0.00    +0.295 C 
ATOM      8  N   UNL     1      52.358  48.464  20.169  1.00  0.00    -0.342 N 
ATOM      9  C   UNL     1      50.952  48.759  20.632  1.00  0.00    +0.288 C 
ATOM     10  H   UNL     1      52.927  48.171  20.975  1.00  0.00    +0.346 HD
ATOM     11  H   UNL     1      52.358  47.694  19.488  1.00  0.00    +0.346 HD
BRANCH   6  12
ATOM     12  O   UNL     1      52.287  51.212  21.343  1.00  0.00    -0.373 OA
ATOM     13  C   UNL     1      51.674  52.435  21.748  1.00  0.00    +0.195 C 
ENDBRANCH   6  12
ENDBRANCH   1   5
BRANCH   2  14
ATOM     14  C   UNL     1      49.366  50.968  16.480  1.00  0.00    +0.100 C 
BRANCH  14  15
ATOM     15  C   UNL     1      48.795  49.588  16.144  1.00  0.00    +0.013 C 
BRANCH  15  16
ATOM     16  C   UNL     1      47.261  49.554  15.940  1.00  0.00    -0.011 C 
ATOM     17  C   UNL     1      46.529  49.849  17.263  1.00  0.00    +0.003 C 
ATOM     18  C   UNL     1      46.743  48.230  15.352  1.00  0.00    +0.003 C 
ATOM     19  C   UNL     1      46.606  48.694  18.260  1.00  0.00    +0.000 C 
ATOM     20  C   UNL     1      46.824  47.065  16.337  1.00  0.00    +0.000 C 
ATOM     21  C   UNL     1      46.113  47.388  17.647  1.00  0.00    +0.000 C 
ENDBRANCH  15  16
ENDBRANCH  14  15
ENDBRANCH   2  14
TORSDOF 5
ENDMDL
MODEL 3
REMARK VINA RESULT:    -6.862      2.423      6.917
REMARK INTER + INTRA:          -9.329
REMARK INTER:                  -8.863
REMARK INTRA:                  -0.466
REMARK UNBOUND:                -0.461
REMARK SMILES CO[C@H]1C[NH2+]C[C@@H]1NC(=O)CCC1CCCCC1
REMARK SMILES IDX 8 1 9 2 10 3 7 5 3 6 4 7 5 8 6 9 2 12 1 13 11 14 12 15 13 16
REMARK SMILES IDX 14 17 18 18 15 19 17 20 16 21
REMARK H PARENT 8 4 5 10 5 11
ROOT
ATOM      1  N   UNL     1      50.814  51.242  20.136  1.00  0.00    -0.345 N 
ATOM      2  C   UNL     1      51.236  49.931  19.970  1.00  0.00    +0.220 C 
ATOM      3  O   UNL     1      52.424  49.638  19.951  1.00  0.00    -0.275 OA
ATOM      4  H   UNL     1      49.866  51.317  20.499  1.00  0.00    +0.164 HD
ENDROOT
BRANCH   1   5
ATOM      5  C   UNL     1      51.787  52.252  20.573  1.00  0.00    +0.171 C 
ATOM      6  C   UNL     1      51.112  53.365  21.386  1.00  0.00    +0.200 C 
ATOM      7  C   UNL     1      50.487  54.236  20.291  1.00  0.00    +0.295 C 
ATOM      8  N   UNL     1      51.468  54.190  19.153  1.00  0.00    -0.342 N 
ATOM      9  C   UNL     1      52.437  53.067  19.434  1.00  0.00    +0.288 C 
ATOM     10  H   UNL     1      51.985  55.077  19.089  1.00  0.00    +0.346 HD
ATOM     11  H   UNL     1      50.992  54.038  18.254  1.00  0.00    +0.346 HD
BRANCH   6  12
ATOM     12  O   UNL     1      52.084  54.157  22.078  1.00  0.00    -0.373 OA
ATOM     13  C   UNL     1      51.578  55.426  22.488  1.00  0.00    +0.195 C 
ENDBRANCH   6  12
ENDBRANCH   1   5
BRANCH   2  14
ATOM     14  C   UNL     1      50.099  48.947  19.761  1.00  0.00    +0.100 C 
BRANCH  14  15
ATOM     15  C   UNL     1      49.043  49.439  18.768  1.00  0.00    +0.013 C 
BRANCH  15  16
ATOM     16  C   UNL     1      47.988  48.380  18.366  1.00  0.00    -0.011 C 
ATOM     17  C   UNL     1      48.500  47.520  17.195  1.00  0.00    +0.003 C 
ATOM     18  C   UNL     1      46.617  48.977  18.004  1.00  0.00    +0.003 C 
ATOM     19  C   UNL     1      48.520  48.272  15.865  1.00  0.00    +0.000 C 
ATOM     20  C   UNL     1      46.628  49.739  16.680  1.00  0.00    +0.000 C 
ATOM     21  C   UNL     1      47.158  48.876  15.540  1.00  0.00    +0.000 C 
ENDBRANCH  15  16
ENDBRANCH  14  15
ENDBRANCH   2  14
TORSDOF 5
ENDMDL
MODEL 4
REMARK VINA RESULT:    -6.717      3.189      6.989
REMARK INTER + INTRA:          -9.141
REMARK INTER:                  -8.659
REMARK INTRA:                  -0.481
REMARK UNBOUND:                -0.461
REMARK SMILES CO[C@H]1C[NH2+]C[C@@H]1NC(=O)CCC1CCCCC1
REMARK SMILES IDX 8 1 9 2 10 3 7 5 3 6 4 7 5 8 6 9 2 12 1 13 11 14 12 15 13 16
REMARK SMILES IDX 14 17 18 18 15 19 17 20 16 21
REMARK H PARENT 8 4 5 10 5 11
ROOT
ATOM      1  N   UNL     1      49.956  50.600  19.127  1.00  0.00    -0.345 N 
ATOM      2  C   UNL     1      49.678  49.287  19.479  1.00  0.00    +0.220 C 
ATOM      3  O   UNL     1      50.475  48.612  20.117  1.00  0.00    -0.275 OA
ATOM      4  H   UNL     1      49.121  51.152  18.944  1.00  0.00    +0.164 HD
ENDROOT
BRANCH   1   5
ATOM      5  C   UNL     1      51.091  51.281  19.764  1.00  0.00    +0.171 C 
ATOM      6  C   UNL     1      50.841  52.790  19.889  1.00  0.00    +0.200 C 
ATOM      7  C   UNL     1      51.151  53.290  18.474  1.00  0.00    +0.295 C 
ATOM      8  N   UNL     1      52.292  52.433  18.001  1.00  0.00    -0.342 N 
ATOM      9  C   UNL     1      52.402  51.263  18.948  1.00  0.00    +0.288 C 
ATOM     10  H   UNL     1      53.172  52.966  18.015  1.00  0.00    +0.346 HD
ATOM     11  H   UNL     1      52.139  52.104  17.039  1.00  0.00    +0.346 HD
BRANCH   6  12
ATOM     12  O   UNL     1      51.780  53.394  20.785  1.00  0.00    -0.373 OA
ATOM     13  C   UNL     1      51.636  52.942  22.130  1.00  0.00    +0.195 C 
ENDBRANCH   6  12
ENDBRANCH   1   5
BRANCH   2  14
ATOM     14  C   UNL     1      48.349  48.782  18.947  1.00  0.00    +0.100 C 
BRANCH  14  15
ATOM     15  C   UNL     1      48.372  48.468  17.449  1.00  0.00    +0.013 C 
BRANCH  15  16
ATOM     16  C   UNL     1      47.570  49.455  16.567  1.00  0.00    -0.011 C 
ATOM     17  C   UNL     1      46.258  49.863  17.263  1.00  0.00    +0.003 C 
ATOM     18  C   UNL     1      47.259  48.917  15.159  1.00  0.00    +0.003 C 
ATOM     19  C   UNL     1      45.216  48.745  17.278  1.00  0.00    +0.000 C 
ATOM     20  C   UNL     1      46.227  47.792  15.164  1.00  0.00    +0.000 C 
ATOM     21  C   UNL     1      44.944  48.210  15.876  1.00  0.00    +0.000 C 
ENDBRANCH  15  16
ENDBRANCH  14  15
ENDBRANCH   2  14
TORSDOF 5
ENDMDL
MODEL 5
REMARK VINA RESULT:    -6.679      2.667      2.965
REMARK INTER + INTRA:          -9.092
REMARK INTER:                  -8.659
REMARK INTRA:                  -0.433
REMARK UNBOUND:                -0.461
REMARK SMILES CO[C@H]1C[NH2+]C[C@@H]1NC(=O)CCC1CCCCC1
REMARK SMILES IDX 8 1 9 2 10 3 7 5 3 6 4 7 5 8 6 9 2 12 1 13 11 14 12 15 13 16
REMARK SMILES IDX 14 17 18 18 15 19 17 20 16 21
REMARK H PARENT 8 4 5 10 5 11
ROOT
ATOM      1  N   UNL     1      49.647  52.098  17.464  1.00  0.00    -0.345 N 
ATOM      2  C   UNL     1      49.203  53.269  18.061  1.00  0.00    +0.220 C 
ATOM      3  O   UNL     1      48.175  53.825  17.697  1.00  0.00    -0.275 OA
ATOM      4  H   UNL     1      50.263  51.550  18.060  1.00  0.00    +0.164 HD
ENDROOT
BRANCH   1   5
ATOM      5  C   UNL     1      48.734  51.362  16.578  1.00  0.00    +0.171 C 
ATOM      6  C   UNL     1      47.784  50.460  17.377  1.00  0.00    +0.200 C 
ATOM      7  C   UNL     1      48.672  49.253  17.699  1.00  0.00    +0.295 C 
ATOM      8  N   UNL     1      49.542  49.078  16.485  1.00  0.00    -0.342 N 
ATOM      9  C   UNL     1      49.415  50.331  15.652  1.00  0.00    +0.288 C 
ATOM     10  H   UNL     1      49.228  48.269  15.932  1.00  0.00    +0.346 HD
ATOM     11  H   UNL     1      50.523  48.918  16.747  1.00  0.00    +0.346 HD
BRANCH   6  12
ATOM     12  O   UNL     1      46.700  50.004  16.560  1.00  0.00    -0.373 OA
ATOM     13  C   UNL     1      45.701  49.305  17.300  1.00  0.00    +0.195 C 
ENDBRANCH   6  12
ENDBRANCH   1   5
BRANCH   2  14
ATOM     14  C   UNL     1      50.138  53.796  19.135  1.00  0.00    +0.100 C 
BRANCH  14  15
ATOM     15  C   UNL     1      49.502  54.869  20.023  1.00  0.00    +0.013 C 
BRANCH  15  16
ATOM     16  C   UNL     1      49.735  56.323  19.549  1.00  0.00    -0.011 C 
ATOM     17  C   UNL     1      50.564  57.107  20.584  1.00  0.00    +0.003 C 
ATOM     18  C   UNL     1      48.437  57.091  19.243  1.00  0.00    +0.003 C 
ATOM     19  C   UNL     1      49.774  57.451  21.846  1.00  0.00    +0.000 C 
ATOM     20  C   UNL     1      47.634  57.431  20.497  1.00  0.00    +0.000 C 
ATOM     21  C   UNL     1      48.480  58.187  21.517  1.00  0.00    +0.000 C 
ENDBRANCH  15  16
ENDBRANCH  14  15
ENDBRANCH   2  14
TORSDOF 5
ENDMDL
