MODEL 1
REMARK VINA RESULT:    -6.984      0.000      0.000
REMARK INTER + INTRA:         -10.778
REMARK INTER:                 -10.047
REMARK INTRA:                  -0.731
REMARK UNBOUND:                -0.731
REMARK SMILES COCCc1nc(-c2ccc([N+](=O)[O-])cc2)c(CC[NH3+])s1
REMARK SMILES IDX 5 1 6 2 7 3 17 4 21 5 4 6 3 7 2 8 1 9 8 10 9 11 16 12 10 13
REMARK SMILES IDX 15 14 11 15 12 16 13 17 14 18 18 19 19 20 20 21
REMARK H PARENT 20 22 20 23 20 24
ROOT
ATOM      1  C   UNL     1      49.103  51.392  17.294  1.00  0.00    +0.096 A 
ATOM      2  N   UNL     1      49.526  52.564  17.716  1.00  0.00    -0.241 NA
ATOM      3  C   UNL     1      50.184  52.438  18.924  1.00  0.00    +0.085 A 
ATOM      4  C   UNL     1      50.354  51.134  19.360  1.00  0.00    +0.038 A 
ATOM      5  S   UNL     1      49.489  50.070  18.317  1.00  0.00    -0.123 S 
ENDROOT
BRANCH   1   6
ATOM      6  C   UNL     1      48.379  51.169  16.003  1.00  0.00    +0.096 C 
BRANCH   6   7
ATOM      7  C   UNL     1      48.629  49.759  15.474  1.00  0.00    +0.167 C 
BRANCH   7   8
ATOM      8  O   UNL     1      49.310  49.823  14.211  1.00  0.00    -0.384 OA
ATOM      9  C   UNL     1      50.702  49.566  14.369  1.00  0.00    +0.194 C 
ENDBRANCH   7   8
ENDBRANCH   6   7
ENDBRANCH   1   6
BRANCH   3  10
ATOM     10  C   UNL     1      50.737  53.616  19.574  1.00  0.00    +0.002 A 
ATOM     11  C   UNL     1      52.015  54.091  19.252  1.00  0.00    +0.017 A 
ATOM     12  C   UNL     1      49.993  54.261  20.572  1.00  0.00    +0.017 A 
ATOM     13  C   UNL     1      52.535  55.221  19.895  1.00  0.00    +0.086 A 
ATOM     14  C   UNL     1      50.502  55.392  21.220  1.00  0.00    +0.086 A 
ATOM     15  C   UNL     1      51.772  55.871  20.875  1.00  0.00    +0.269 A 
BRANCH  15  16
ATOM     16  N   UNL     1      52.308  57.064  21.544  1.00  0.00    +0.062 N 
ATOM     17  O   UNL     1      51.606  58.084  21.543  1.00  0.00    -0.258 OA
ATOM     18  O   UNL     1      53.418  56.968  22.086  1.00  0.00    -0.258 OA
ENDBRANCH  15  16
ENDBRANCH   3  10
BRANCH   4  19
ATOM     19  C   UNL     1      51.173  50.561  20.476  1.00  0.00    +0.110 C 
BRANCH  19  20
ATOM     20  C   UNL     1      52.625  50.331  20.040  1.00  0.00    +0.264 C 
BRANCH  20  21
ATOM     21  N   UNL     1      52.911  48.881  19.853  1.00  0.00    -0.357 N 
ATOM     22  H   UNL     1      53.920  48.680  19.952  1.00  0.00    +0.344 HD
ATOM     23  H   UNL     1      52.635  48.548  18.920  1.00  0.00    +0.344 HD
ATOM     24  H   UNL     1      52.421  48.304  20.548  1.00  0.00    +0.344 HD
ENDBRANCH  20  21
ENDBRANCH  19  20
ENDBRANCH   4  19
TORSDOF 8
ENDMDL
MODEL 2
REMARK VINA RESULT:    -6.880      1.614      2.178
REMARK INTER + INTRA:         -10.628
REMARK INTER:                 -10.051
REMARK INTRA:                  -0.576
REMARK UNBOUND:                -0.731
REMARK SMILES COCCc1nc(-c2ccc([N+](=O)[O-])cc2)c(CC[NH3+])s1
REMARK SMILES IDX 5 1 6 2 7 3 17 4 21 5 4 6 3 7 2 8 1 9 8 10 9 11 16 12 10 13
REMARK SMILES IDX 15 14 11 15 12 16 13 17 14 18 18 19 19 20 20 21
REMARK H PARENT 20 22 20 23 20 24
ROOT
ATOM      1  C   UNL     1      49.161  52.281  17.808  1.00  0.00    +0.096 A 
ATOM      2  N   UNL     1      49.621  53.414  18.293  1.00  0.00    -0.241 NA
ATOM      3  C   UNL     1      50.566  53.177  19.272  1.00  0.00    +0.085 A 
ATOM      4  C   UNL     1      50.901  51.843  19.446  1.00  0.00    +0.038 A 
ATOM      5  S   UNL     1      49.852  50.867  18.489  1.00  0.00    -0.123 S 
ENDROOT
BRANCH   1   6
ATOM      6  C   UNL     1      48.148  52.180  16.711  1.00  0.00    +0.096 C 
BRANCH   6   7
ATOM      7  C   UNL     1      47.621  50.752  16.585  1.00  0.00    +0.167 C 
BRANCH   7   8
ATOM      8  O   UNL     1      46.370  50.629  17.280  1.00  0.00    -0.384 OA
ATOM      9  C   UNL     1      45.905  49.282  17.254  1.00  0.00    +0.194 C 
ENDBRANCH   7   8
ENDBRANCH   6   7
ENDBRANCH   1   6
BRANCH   3  10
ATOM     10  C   UNL     1      51.208  54.295  19.945  1.00  0.00    +0.002 A 
ATOM     11  C   UNL     1      51.100  54.467  21.332  1.00  0.00    +0.017 A 
ATOM     12  C   UNL     1      51.910  55.241  19.186  1.00  0.00    +0.017 A 
ATOM     13  C   UNL     1      51.717  55.554  21.961  1.00  0.00    +0.086 A 
ATOM     14  C   UNL     1      52.532  56.331  19.805  1.00  0.00    +0.086 A 
ATOM     15  C   UNL     1      52.435  56.482  21.194  1.00  0.00    +0.269 A 
BRANCH  15  16
ATOM     16  N   UNL     1      53.094  57.618  21.852  1.00  0.00    +0.062 N 
ATOM     17  O   UNL     1      54.200  57.416  22.372  1.00  0.00    -0.258 OA
ATOM     18  O   UNL     1      52.512  58.711  21.826  1.00  0.00    -0.258 OA
ENDBRANCH  15  16
ENDBRANCH   3  10
BRANCH   4  19
ATOM     19  C   UNL     1      51.999  51.191  20.229  1.00  0.00    +0.110 C 
BRANCH  19  20
ATOM     20  C   UNL     1      52.752  50.160  19.379  1.00  0.00    +0.264 C 
BRANCH  20  21
ATOM     21  N   UNL     1      52.655  48.796  19.971  1.00  0.00    -0.357 N 
ATOM     22  H   UNL     1      53.385  48.170  19.595  1.00  0.00    +0.344 HD
ATOM     23  H   UNL     1      51.751  48.349  19.771  1.00  0.00    +0.344 HD
ATOM     24  H   UNL     1      52.774  48.816  20.992  1.00  0.00    +0.344 HD
ENDBRANCH  20  21
ENDBRANCH  19  20
ENDBRANCH   4  19
TORSDOF 8
ENDMDL
MODEL 3
REMARK VINA RESULT:    -6.811      3.857      8.616
REMARK INTER + INTRA:         -10.528
REMARK INTER:                  -9.796
REMARK INTRA:                  -0.732
REMARK UNBOUND:                -0.731
REMARK SMILES COCCc1nc(-c2ccc([N+](=O)[O-])cc2)c(CC[NH3+])s1
REMARK SMILES IDX 5 1 6 2 7 3 17 4 21 5 4 6 3 7 2 8 1 9 8 10 9 11 16 12 10 13
REMARK SMILES IDX 15 14 11 15 12 16 13 17 14 18 18 19 19 20 20 21
REMARK H PARENT 20 22 20 23 20 24
ROOT
ATOM      1  C   UNL     1      50.220  49.900  19.372  1.00  0.00    +0.096 A 
ATOM      2  N   UNL     1      49.154  49.184  19.089  1.00  0.00    -0.241 NA
ATOM      3  C   UNL     1      48.745  49.414  17.790  1.00  0.00    +0.085 A 
ATOM      4  C   UNL     1      49.585  50.231  17.051  1.00  0.00    +0.038 A 
ATOM      5  S   UNL     1      50.802  50.875  18.086  1.00  0.00    -0.123 S 
ENDROOT
BRANCH   1   6
ATOM      6  C   UNL     1      50.938  49.865  20.685  1.00  0.00    +0.096 C 
BRANCH   6   7
ATOM      7  C   UNL     1      52.121  50.832  20.687  1.00  0.00    +0.167 C 
BRANCH   7   8
ATOM      8  O   UNL     1      52.066  51.670  21.851  1.00  0.00    -0.384 OA
ATOM      9  C   UNL     1      51.020  52.631  21.739  1.00  0.00    +0.194 C 
ENDBRANCH   7   8
ENDBRANCH   6   7
ENDBRANCH   1   6
BRANCH   3  10
ATOM     10  C   UNL     1      47.578  48.721  17.265  1.00  0.00    +0.002 A 
ATOM     11  C   UNL     1      46.307  49.310  17.302  1.00  0.00    +0.017 A 
ATOM     12  C   UNL     1      47.722  47.424  16.754  1.00  0.00    +0.017 A 
ATOM     13  C   UNL     1      45.193  48.625  16.801  1.00  0.00    +0.086 A 
ATOM     14  C   UNL     1      46.616  46.730  16.250  1.00  0.00    +0.086 A 
ATOM     15  C   UNL     1      45.354  47.337  16.272  1.00  0.00    +0.269 A 
BRANCH  15  16
ATOM     16  N   UNL     1      44.191  46.619  15.734  1.00  0.00    +0.062 N 
ATOM     17  O   UNL     1      44.199  45.382  15.805  1.00  0.00    -0.258 OA
ATOM     18  O   UNL     1      43.266  47.295  15.263  1.00  0.00    -0.258 OA
ENDBRANCH  15  16
ENDBRANCH   3  10
BRANCH   4  19
ATOM     19  C   UNL     1      49.622  50.551  15.588  1.00  0.00    +0.110 C 
BRANCH  19  20
ATOM     20  C   UNL     1      50.373  49.471  14.801  1.00  0.00    +0.264 C 
BRANCH  20  21
ATOM     21  N   UNL     1      51.807  49.835  14.615  1.00  0.00    -0.357 N 
ATOM     22  H   UNL     1      52.303  49.883  15.520  1.00  0.00    +0.344 HD
ATOM     23  H   UNL     1      51.920  50.754  14.168  1.00  0.00    +0.344 HD
ATOM     24  H   UNL     1      52.302  49.143  14.038  1.00  0.00    +0.344 HD
ENDBRANCH  20  21
ENDBRANCH  19  20
ENDBRANCH   4  19
TORSDOF 8
ENDMDL
MODEL 4
REMARK VINA RESULT:    -6.729      2.474      7.059
REMARK INTER + INTRA:         -10.410
REMARK INTER:                 -10.077
REMARK INTRA:                  -0.333
REMARK UNBOUND:                -0.731
REMARK SMILES COCCc1nc(-c2ccc([N+](=O)[O-])cc2)c(CC[NH3+])s1
REMARK SMILES IDX 5 1 6 2 7 3 17 4 21 5 4 6 3 7 2 8 1 9 8 10 9 11 16 12 10 13
REMARK SMILES IDX 15 14 11 15 12 16 13 17 14 18 18 19 19 20 20 21
REMARK H PARENT 20 22 20 23 20 24
ROOT
ATOM      1  C   UNL     1      51.229  54.312  19.154  1.00  0.00    +0.096 A 
ATOM      2  N   UNL     1      50.114  53.679  18.861  1.00  0.00    -0.241 NA
ATOM      3  C   UNL     1      50.379  52.383  18.466  1.00  0.00    +0.085 A 
ATOM      4  C   UNL     1      51.708  52.003  18.571  1.00  0.00    +0.038 A 
ATOM      5  S   UNL     1      52.658  53.377  18.988  1.00  0.00    -0.123 S 
ENDROOT
BRANCH   1   6
ATOM      6  C   UNL     1      51.297  55.724  19.647  1.00  0.00    +0.096 C 
BRANCH   6   7
ATOM      7  C   UNL     1      52.678  56.038  20.216  1.00  0.00    +0.167 C 
BRANCH   7   8
ATOM      8  O   UNL     1      52.632  56.020  21.651  1.00  0.00    -0.384 OA
ATOM      9  C   UNL     1      51.384  56.515  22.127  1.00  0.00    +0.194 C 
ENDBRANCH   7   8
ENDBRANCH   6   7
ENDBRANCH   1   6
BRANCH   3  10
ATOM     10  C   UNL     1      49.284  51.501  18.094  1.00  0.00    +0.002 A 
ATOM     11  C   UNL     1      48.253  51.937  17.252  1.00  0.00    +0.017 A 
ATOM     12  C   UNL     1      49.238  50.203  18.624  1.00  0.00    +0.017 A 
ATOM     13  C   UNL     1      47.202  51.077  16.913  1.00  0.00    +0.086 A 
ATOM     14  C   UNL     1      48.193  49.335  18.291  1.00  0.00    +0.086 A 
ATOM     15  C   UNL     1      47.179  49.775  17.431  1.00  0.00    +0.269 A 
BRANCH  15  16
ATOM     16  N   UNL     1      46.084  48.865  17.069  1.00  0.00    +0.062 N 
ATOM     17  O   UNL     1      45.206  48.659  17.919  1.00  0.00    -0.258 OA
ATOM     18  O   UNL     1      46.096  48.378  15.930  1.00  0.00    -0.258 OA
ENDBRANCH  15  16
ENDBRANCH   3  10
BRANCH   4  19
ATOM     19  C   UNL     1      52.369  50.663  18.451  1.00  0.00    +0.110 C 
BRANCH  19  20
ATOM     20  C   UNL     1      52.805  50.134  19.823  1.00  0.00    +0.264 C 
BRANCH  20  21
ATOM     21  N   UNL     1      52.597  48.661  19.926  1.00  0.00    -0.357 N 
ATOM     22  H   UNL     1      53.221  48.147  19.283  1.00  0.00    +0.344 HD
ATOM     23  H   UNL     1      51.636  48.387  19.685  1.00  0.00    +0.344 HD
ATOM     24  H   UNL     1      52.793  48.316  20.874  1.00  0.00    +0.344 HD
ENDBRANCH  20  21
ENDBRANCH  19  20
ENDBRANCH   4  19
TORSDOF 8
ENDMDL
MODEL 5
REMARK VINA RESULT:    -6.657      3.012      7.779
REMARK INTER + INTRA:         -10.307
REMARK INTER:                  -9.687
REMARK INTRA:                  -0.620
REMARK UNBOUND:                -0.731
REMARK SMILES COCCc1nc(-c2ccc([N+](=O)[O-])cc2)c(CC[NH3+])s1
REMARK SMILES IDX 5 1 6 2 7 3 17 4 21 5 4 6 3 7 2 8 1 9 8 10 9 11 16 12 10 13
REMARK SMILES IDX 15 14 11 15 12 16 13 17 14 18 18 19 19 20 20 21
REMARK H PARENT 20 22 20 23 20 24
ROOT
ATOM      1  C   UNL     1      49.448  52.982  18.248  1.00  0.00    +0.096 A 
ATOM      2  N   UNL     1      48.496  52.353  17.595  1.00  0.00    -0.241 NA
ATOM      3  C   UNL     1      48.653  50.985  17.702  1.00  0.00    +0.085 A 
ATOM      4  C   UNL     1      49.678  50.582  18.542  1.00  0.00    +0.038 A 
ATOM      5  S   UNL     1      50.577  51.963  19.043  1.00  0.00    -0.123 S 
ENDROOT
BRANCH   1   6
ATOM      6  C   UNL     1      49.556  54.471  18.361  1.00  0.00    +0.096 C 
BRANCH   6   7
ATOM      7  C   UNL     1      50.518  54.865  19.481  1.00  0.00    +0.167 C 
BRANCH   7   8
ATOM      8  O   UNL     1      51.704  55.451  18.924  1.00  0.00    -0.384 OA
ATOM      9  C   UNL     1      52.498  56.057  19.940  1.00  0.00    +0.194 C 
ENDBRANCH   7   8
ENDBRANCH   6   7
ENDBRANCH   1   6
BRANCH   3  10
ATOM     10  C   UNL     1      47.705  50.094  17.052  1.00  0.00    +0.002 A 
ATOM     11  C   UNL     1      48.010  49.472  15.834  1.00  0.00    +0.017 A 
ATOM     12  C   UNL     1      46.445  49.890  17.633  1.00  0.00    +0.017 A 
ATOM     13  C   UNL     1      47.081  48.624  15.219  1.00  0.00    +0.086 A 
ATOM     14  C   UNL     1      45.510  49.045  17.027  1.00  0.00    +0.086 A 
ATOM     15  C   UNL     1      45.834  48.411  15.821  1.00  0.00    +0.269 A 
BRANCH  15  16
ATOM     16  N   UNL     1      44.860  47.513  15.184  1.00  0.00    +0.062 N 
ATOM     17  O   UNL     1      45.268  46.783  14.270  1.00  0.00    -0.258 OA
ATOM     18  O   UNL     1      43.700  47.528  15.616  1.00  0.00    -0.258 OA
ENDBRANCH  15  16
ENDBRANCH   3  10
BRANCH   4  19
ATOM     19  C   UNL     1      50.041  49.234  19.087  1.00  0.00    +0.110 C 
BRANCH  19  20
ATOM     20  C   UNL     1      51.028  49.352  20.255  1.00  0.00    +0.264 C 
BRANCH  20  21
ATOM     21  N   UNL     1      52.353  48.767  19.906  1.00  0.00    -0.357 N 
ATOM     22  H   UNL     1      52.254  47.980  19.244  1.00  0.00    +0.344 HD
ATOM     23  H   UNL     1      52.844  48.398  20.730  1.00  0.00    +0.344 HD
ATOM     24  H   UNL     1      52.968  49.459  19.459  1.00  0.00    +0.344 HD
ENDBRANCH  20  21
ENDBRANCH  19  20
ENDBRANCH   4  19
TORSDOF 8
ENDMDL
