MODEL 1
REMARK VINA RESULT:   -10.045      0.000      0.000
REMARK INTER + INTRA:         -13.972
REMARK INTER:                 -13.568
REMARK INTRA:                  -0.404
REMARK UNBOUND:                -0.404
REMARK SMILES CC(C)C(=O)Nc1ccc2[nH]cc([C@H](C(=O)[O-])[NH+]3CCN(c4ccc(F)cc4)CC3)c2c1
REMARK SMILES IDX 7 1 8 2 9 3 10 4 31 5 32 6 13 7 12 8 11 9 6 11 4 12 5 13
REMARK SMILES IDX 2 15 1 16 3 17 14 18 15 19 16 20 17 21 18 22 19 23 30 24
REMARK SMILES IDX 20 25 29 26 21 27 22 29 23 30 28 31 24 32 27 33 25 34 26 35
REMARK H PARENT 11 10 6 14 18 28
ROOT
ATOM      1  C   UNL     1      50.438  54.258  20.655  1.00  0.00    +0.041 A 
ATOM      2  C   UNL     1      50.894  54.071  21.961  1.00  0.00    +0.028 A 
ATOM      3  C   UNL     1      51.600  52.919  22.328  1.00  0.00    +0.029 A 
ATOM      4  C   UNL     1      51.833  51.956  21.341  1.00  0.00    +0.046 A 
ATOM      5  C   UNL     1      51.420  52.118  20.020  1.00  0.00    +0.011 A 
ATOM      6  C   UNL     1      50.730  53.302  19.676  1.00  0.00    +0.037 A 
ATOM      7  C   UNL     1      51.833  50.951  19.290  1.00  0.00    +0.041 A 
ATOM      8  C   UNL     1      52.458  50.121  20.205  1.00  0.00    +0.093 A 
ATOM      9  N   UNL     1      52.485  50.749  21.419  1.00  0.00    -0.361 N 
ATOM     10  H   UNL     1      52.927  50.388  22.253  1.00  0.00    +0.166 HD
ENDROOT
BRANCH   1  11
ATOM     11  N   UNL     1      49.718  55.434  20.374  1.00  0.00    -0.326 N 
ATOM     12  C   UNL     1      50.249  56.711  20.249  1.00  0.00    +0.226 C 
ATOM     13  O   UNL     1      51.444  56.988  20.171  1.00  0.00    -0.274 OA
ATOM     14  H   UNL     1      48.737  55.320  20.154  1.00  0.00    +0.169 HD
BRANCH  12  15
ATOM     15  C   UNL     1      49.155  57.772  20.109  1.00  0.00    +0.072 C 
ATOM     16  C   UNL     1      48.050  57.300  19.167  1.00  0.00    +0.018 C 
ATOM     17  C   UNL     1      48.587  58.115  21.484  1.00  0.00    +0.018 C 
ENDBRANCH  12  15
ENDBRANCH   1  11
BRANCH   7  18
ATOM     18  C   UNL     1      51.647  50.653  17.823  1.00  0.00    +0.264 C 
BRANCH  18  19
ATOM     19  C   UNL     1      52.849  51.297  17.026  1.00  0.00    +0.104 C 
ATOM     20  O   UNL     1      53.357  50.470  16.202  1.00  0.00    -0.544 OA
ATOM     21  O   UNL     1      53.224  52.438  17.392  1.00  0.00    -0.544 OA
ENDBRANCH  18  19
BRANCH  18  22
ATOM     22  N   UNL     1      50.285  51.127  17.240  1.00  0.00    -0.321 N 
ATOM     23  C   UNL     1      50.098  50.652  15.808  1.00  0.00    +0.284 C 
ATOM     24  C   UNL     1      49.092  50.936  18.125  1.00  0.00    +0.284 C 
ATOM     25  C   UNL     1      49.125  49.461  15.743  1.00  0.00    +0.178 C 
ATOM     26  C   UNL     1      47.775  50.883  17.325  1.00  0.00    +0.178 C 
ATOM     27  N   UNL     1      47.807  49.817  16.303  1.00  0.00    -0.360 N 
ATOM     28  H   UNL     1      50.507  52.136  17.123  1.00  0.00    +0.349 HD
BRANCH  27  29
ATOM     29  C   UNL     1      46.688  49.027  16.074  1.00  0.00    +0.037 A 
ATOM     30  C   UNL     1      45.699  48.849  17.062  1.00  0.00    +0.029 A 
ATOM     31  C   UNL     1      46.472  48.379  14.843  1.00  0.00    +0.029 A 
ATOM     32  C   UNL     1      44.568  48.052  16.842  1.00  0.00    +0.041 A 
ATOM     33  C   UNL     1      45.346  47.577  14.618  1.00  0.00    +0.041 A 
ATOM     34  C   UNL     1      44.407  47.415  15.624  1.00  0.00    +0.123 A 
ATOM     35  F   UNL     1      43.327  46.649  15.413  1.00  0.00    -0.207 F 
ENDBRANCH  27  29
ENDBRANCH  18  22
ENDBRANCH   7  18
TORSDOF 6
ENDMDL
MODEL 2
REMARK VINA RESULT:    -9.251      2.148      3.074
REMARK INTER + INTRA:         -12.899
REMARK INTER:                 -13.185
REMARK INTRA:                   0.286
REMARK UNBOUND:                -0.404
REMARK SMILES CC(C)C(=O)Nc1ccc2[nH]cc([C@H](C(=O)[O-])[NH+]3CCN(c4ccc(F)cc4)CC3)c2c1
REMARK SMILES IDX 7 1 8 2 9 3 10 4 31 5 32 6 13 7 12 8 11 9 6 11 4 12 5 13
REMARK SMILES IDX 2 15 1 16 3 17 14 18 15 19 16 20 17 21 18 22 19 23 30 24
REMARK SMILES IDX 20 25 29 26 21 27 22 29 23 30 28 31 24 32 27 33 25 34 26 35
REMARK H PARENT 11 10 6 14 18 28
ROOT
ATOM      1  C   UNL     1      48.919  56.166  18.492  1.00  0.00    +0.041 A 
ATOM      2  C   UNL     1      49.076  56.901  19.669  1.00  0.00    +0.028 A 
ATOM      3  C   UNL     1      49.723  56.358  20.785  1.00  0.00    +0.029 A 
ATOM      4  C   UNL     1      50.208  55.050  20.684  1.00  0.00    +0.046 A 
ATOM      5  C   UNL     1      50.098  54.295  19.519  1.00  0.00    +0.011 A 
ATOM      6  C   UNL     1      49.460  54.879  18.402  1.00  0.00    +0.037 A 
ATOM      7  C   UNL     1      50.709  53.018  19.769  1.00  0.00    +0.041 A 
ATOM      8  C   UNL     1      51.142  53.046  21.084  1.00  0.00    +0.093 A 
ATOM      9  N   UNL     1      50.871  54.279  21.608  1.00  0.00    -0.361 N 
ATOM     10  H   UNL     1      51.126  54.588  22.536  1.00  0.00    +0.166 HD
ENDROOT
BRANCH   1  11
ATOM     11  N   UNL     1      48.237  56.778  17.423  1.00  0.00    -0.326 N 
ATOM     12  C   UNL     1      47.907  56.182  16.213  1.00  0.00    +0.226 C 
ATOM     13  O   UNL     1      47.981  54.982  15.958  1.00  0.00    -0.274 OA
ATOM     14  H   UNL     1      47.877  57.708  17.591  1.00  0.00    +0.169 HD
BRANCH  12  15
ATOM     15  C   UNL     1      47.320  57.190  15.222  1.00  0.00    +0.072 C 
ATOM     16  C   UNL     1      46.542  56.483  14.114  1.00  0.00    +0.018 C 
ATOM     17  C   UNL     1      46.427  58.183  15.963  1.00  0.00    +0.018 C 
ENDBRANCH  12  15
ENDBRANCH   1  11
BRANCH   7  18
ATOM     18  C   UNL     1      50.869  51.858  18.820  1.00  0.00    +0.264 C 
BRANCH  18  19
ATOM     19  C   UNL     1      52.370  51.816  18.331  1.00  0.00    +0.104 C 
ATOM     20  O   UNL     1      52.891  50.670  18.523  1.00  0.00    -0.544 OA
ATOM     21  O   UNL     1      52.877  52.906  17.966  1.00  0.00    -0.544 OA
ENDBRANCH  18  19
BRANCH  18  22
ATOM     22  N   UNL     1      49.897  51.882  17.606  1.00  0.00    -0.321 N 
ATOM     23  C   UNL     1      50.179  50.740  16.645  1.00  0.00    +0.284 C 
ATOM     24  C   UNL     1      48.448  52.085  17.932  1.00  0.00    +0.284 C 
ATOM     25  C   UNL     1      49.137  49.617  16.799  1.00  0.00    +0.178 C 
ATOM     26  C   UNL     1      47.521  51.550  16.823  1.00  0.00    +0.178 C 
ATOM     27  N   UNL     1      47.771  50.118  16.554  1.00  0.00    -0.360 N 
ATOM     28  H   UNL     1      50.288  52.707  17.108  1.00  0.00    +0.349 HD
BRANCH  27  29
ATOM     29  C   UNL     1      46.712  49.249  16.328  1.00  0.00    +0.037 A 
ATOM     30  C   UNL     1      46.582  48.549  15.112  1.00  0.00    +0.029 A 
ATOM     31  C   UNL     1      45.727  49.005  17.304  1.00  0.00    +0.029 A 
ATOM     32  C   UNL     1      45.516  47.672  14.874  1.00  0.00    +0.041 A 
ATOM     33  C   UNL     1      44.656  48.133  17.070  1.00  0.00    +0.041 A 
ATOM     34  C   UNL     1      44.556  47.480  15.852  1.00  0.00    +0.123 A 
ATOM     35  F   UNL     1      43.533  46.643  15.624  1.00  0.00    -0.207 F 
ENDBRANCH  27  29
ENDBRANCH  18  22
ENDBRANCH   7  18
TORSDOF 6
ENDMDL
MODEL 3
REMARK VINA RESULT:    -8.997      2.079      3.550
REMARK INTER + INTRA:         -12.556
REMARK INTER:                 -12.242
REMARK INTRA:                  -0.314
REMARK UNBOUND:                -0.404
REMARK SMILES CC(C)C(=O)Nc1ccc2[nH]cc([C@H](C(=O)[O-])[NH+]3CCN(c4ccc(F)cc4)CC3)c2c1
REMARK SMILES IDX 7 1 8 2 9 3 10 4 31 5 32 6 13 7 12 8 11 9 6 11 4 12 5 13
REMARK SMILES IDX 2 15 1 16 3 17 14 18 15 19 16 20 17 21 18 22 19 23 30 24
REMARK SMILES IDX 20 25 29 26 21 27 22 29 23 30 28 31 24 32 27 33 25 34 26 35
REMARK H PARENT 11 10 6 14 18 28
ROOT
ATOM      1  C   UNL     1      49.267  55.107  19.042  1.00  0.00    +0.041 A 
ATOM      2  C   UNL     1      48.672  55.730  17.943  1.00  0.00    +0.028 A 
ATOM      3  C   UNL     1      48.198  54.988  16.853  1.00  0.00    +0.029 A 
ATOM      4  C   UNL     1      48.343  53.597  16.901  1.00  0.00    +0.046 A 
ATOM      5  C   UNL     1      48.904  52.936  17.992  1.00  0.00    +0.011 A 
ATOM      6  C   UNL     1      49.351  53.711  19.085  1.00  0.00    +0.037 A 
ATOM      7  C   UNL     1      48.882  51.528  17.704  1.00  0.00    +0.041 A 
ATOM      8  C   UNL     1      48.330  51.398  16.441  1.00  0.00    +0.093 A 
ATOM      9  N   UNL     1      47.978  52.638  15.987  1.00  0.00    -0.361 N 
ATOM     10  H   UNL     1      47.508  52.828  15.113  1.00  0.00    +0.166 HD
ENDROOT
BRANCH   1  11
ATOM     11  N   UNL     1      49.735  55.927  20.086  1.00  0.00    -0.326 N 
ATOM     12  C   UNL     1      51.053  56.311  20.299  1.00  0.00    +0.226 C 
ATOM     13  O   UNL     1      51.982  56.161  19.509  1.00  0.00    -0.274 OA
ATOM     14  H   UNL     1      49.031  56.345  20.680  1.00  0.00    +0.169 HD
BRANCH  12  15
ATOM     15  C   UNL     1      51.220  57.063  21.622  1.00  0.00    +0.072 C 
ATOM     16  C   UNL     1      49.926  57.771  22.018  1.00  0.00    +0.018 C 
ATOM     17  C   UNL     1      51.665  56.094  22.714  1.00  0.00    +0.018 C 
ENDBRANCH  12  15
ENDBRANCH   1  11
BRANCH   7  18
ATOM     18  C   UNL     1      49.351  50.390  18.576  1.00  0.00    +0.264 C 
BRANCH  18  19
ATOM     19  C   UNL     1      50.930  50.411  18.617  1.00  0.00    +0.104 C 
ATOM     20  O   UNL     1      51.372  50.027  19.747  1.00  0.00    -0.544 OA
ATOM     21  O   UNL     1      51.515  50.918  17.627  1.00  0.00    -0.544 OA
ENDBRANCH  18  19
BRANCH  18  22
ATOM     22  N   UNL     1      48.833  48.991  18.139  1.00  0.00    -0.321 N 
ATOM     23  C   UNL     1      47.454  48.705  18.710  1.00  0.00    +0.284 C 
ATOM     24  C   UNL     1      48.991  48.658  16.686  1.00  0.00    +0.284 C 
ATOM     25  C   UNL     1      46.364  48.874  17.636  1.00  0.00    +0.178 C 
ATOM     26  C   UNL     1      47.997  47.574  16.225  1.00  0.00    +0.178 C 
ATOM     27  N   UNL     1      46.600  47.975  16.490  1.00  0.00    -0.360 N 
ATOM     28  H   UNL     1      49.455  48.401  18.728  1.00  0.00    +0.349 HD
BRANCH  27  29
ATOM     29  C   UNL     1      45.604  47.719  15.556  1.00  0.00    +0.037 A 
ATOM     30  C   UNL     1      45.765  48.061  14.198  1.00  0.00    +0.029 A 
ATOM     31  C   UNL     1      44.395  47.090  15.909  1.00  0.00    +0.029 A 
ATOM     32  C   UNL     1      44.766  47.809  13.249  1.00  0.00    +0.041 A 
ATOM     33  C   UNL     1      43.390  46.840  14.965  1.00  0.00    +0.041 A 
ATOM     34  C   UNL     1      43.583  47.209  13.644  1.00  0.00    +0.123 A 
ATOM     35  F   UNL     1      42.624  46.971  12.737  1.00  0.00    -0.207 F 
ENDBRANCH  27  29
ENDBRANCH  18  22
ENDBRANCH   7  18
TORSDOF 6
ENDMDL
MODEL 4
REMARK VINA RESULT:    -8.776      2.004      3.212
REMARK INTER + INTRA:         -12.258
REMARK INTER:                 -12.556
REMARK INTRA:                   0.298
REMARK UNBOUND:                -0.404
REMARK SMILES CC(C)C(=O)Nc1ccc2[nH]cc([C@H](C(=O)[O-])[NH+]3CCN(c4ccc(F)cc4)CC3)c2c1
REMARK SMILES IDX 7 1 8 2 9 3 10 4 31 5 32 6 13 7 12 8 11 9 6 11 4 12 5 13
REMARK SMILES IDX 2 15 1 16 3 17 14 18 15 19 16 20 17 21 18 22 19 23 30 24
REMARK SMILES IDX 20 25 29 26 21 27 22 29 23 30 28 31 24 32 27 33 25 34 26 35
REMARK H PARENT 11 10 6 14 18 28
ROOT
ATOM      1  C   UNL     1      50.913  56.038  19.619  1.00  0.00    +0.041 A 
ATOM      2  C   UNL     1      49.826  56.684  19.027  1.00  0.00    +0.028 A 
ATOM      3  C   UNL     1      48.851  55.969  18.319  1.00  0.00    +0.029 A 
ATOM      4  C   UNL     1      49.004  54.582  18.221  1.00  0.00    +0.046 A 
ATOM      5  C   UNL     1      50.058  53.897  18.822  1.00  0.00    +0.011 A 
ATOM      6  C   UNL     1      51.012  54.643  19.549  1.00  0.00    +0.037 A 
ATOM      7  C   UNL     1      49.892  52.500  18.526  1.00  0.00    +0.041 A 
ATOM      8  C   UNL     1      48.757  52.402  17.739  1.00  0.00    +0.093 A 
ATOM      9  N   UNL     1      48.215  53.648  17.595  1.00  0.00    -0.361 N 
ATOM     10  H   UNL     1      47.354  53.857  17.109  1.00  0.00    +0.166 HD
ENDROOT
BRANCH   1  11
ATOM     11  N   UNL     1      51.859  56.831  20.294  1.00  0.00    -0.326 N 
ATOM     12  C   UNL     1      52.362  56.601  21.569  1.00  0.00    +0.226 C 
ATOM     13  O   UNL     1      52.212  55.574  22.227  1.00  0.00    -0.274 OA
ATOM     14  H   UNL     1      52.275  57.586  19.764  1.00  0.00    +0.169 HD
BRANCH  12  15
ATOM     15  C   UNL     1      53.243  57.757  22.050  1.00  0.00    +0.072 C 
ATOM     16  C   UNL     1      54.663  57.630  21.502  1.00  0.00    +0.018 C 
ATOM     17  C   UNL     1      52.620  59.088  21.640  1.00  0.00    +0.018 C 
ENDBRANCH  12  15
ENDBRANCH   1  11
BRANCH   7  18
ATOM     18  C   UNL     1      50.754  51.344  18.967  1.00  0.00    +0.264 C 
BRANCH  18  19
ATOM     19  C   UNL     1      52.269  51.761  18.805  1.00  0.00    +0.104 C 
ATOM     20  O   UNL     1      52.833  51.918  19.935  1.00  0.00    -0.544 OA
ATOM     21  O   UNL     1      52.665  52.012  17.639  1.00  0.00    -0.544 OA
ENDBRANCH  18  19
BRANCH  18  22
ATOM     22  N   UNL     1      50.469  50.010  18.222  1.00  0.00    -0.321 N 
ATOM     23  C   UNL     1      49.641  49.063  19.075  1.00  0.00    +0.284 C 
ATOM     24  C   UNL     1      50.011  50.138  16.801  1.00  0.00    +0.284 C 
ATOM     25  C   UNL     1      48.174  49.038  18.608  1.00  0.00    +0.178 C 
ATOM     26  C   UNL     1      49.231  48.897  16.326  1.00  0.00    +0.178 C 
ATOM     27  N   UNL     1      48.069  48.623  17.197  1.00  0.00    -0.360 N 
ATOM     28  H   UNL     1      51.421  49.595  18.272  1.00  0.00    +0.349 HD
BRANCH  27  29
ATOM     29  C   UNL     1      46.855  48.228  16.649  1.00  0.00    +0.037 A 
ATOM     30  C   UNL     1      45.729  47.976  17.458  1.00  0.00    +0.029 A 
ATOM     31  C   UNL     1      46.679  48.076  15.260  1.00  0.00    +0.029 A 
ATOM     32  C   UNL     1      44.502  47.575  16.915  1.00  0.00    +0.041 A 
ATOM     33  C   UNL     1      45.456  47.670  14.711  1.00  0.00    +0.041 A 
ATOM     34  C   UNL     1      44.380  47.416  15.546  1.00  0.00    +0.123 A 
ATOM     35  F   UNL     1      43.207  47.028  15.024  1.00  0.00    -0.207 F 
ENDBRANCH  27  29
ENDBRANCH  18  22
ENDBRANCH   7  18
TORSDOF 6
ENDMDL
MODEL 5
REMARK VINA RESULT:    -7.684      7.672     11.647
REMARK INTER + INTRA:         -10.782
REMARK INTER:                  -9.549
REMARK INTRA:                  -1.233
REMARK UNBOUND:                -0.404
REMARK SMILES CC(C)C(=O)Nc1ccc2[nH]cc([C@H](C(=O)[O-])[NH+]3CCN(c4ccc(F)cc4)CC3)c2c1
REMARK SMILES IDX 7 1 8 2 9 3 10 4 31 5 32 6 13 7 12 8 11 9 6 11 4 12 5 13
REMARK SMILES IDX 2 15 1 16 3 17 14 18 15 19 16 20 17 21 18 22 19 23 30 24
REMARK SMILES IDX 20 25 29 26 21 27 22 29 23 30 28 31 24 32 27 33 25 34 26 35
REMARK H PARENT 11 10 6 14 18 28
ROOT
ATOM      1  C   UNL     1      46.936  57.840  16.192  1.00  0.00    +0.041 A 
ATOM      2  C   UNL     1      47.881  57.174  15.410  1.00  0.00    +0.028 A 
ATOM      3  C   UNL     1      47.523  56.554  14.207  1.00  0.00    +0.029 A 
ATOM      4  C   UNL     1      46.183  56.622  13.813  1.00  0.00    +0.046 A 
ATOM      5  C   UNL     1      45.215  57.302  14.550  1.00  0.00    +0.011 A 
ATOM      6  C   UNL     1      45.613  57.937  15.747  1.00  0.00    +0.037 A 
ATOM      7  C   UNL     1      43.967  57.174  13.850  1.00  0.00    +0.041 A 
ATOM      8  C   UNL     1      44.226  56.402  12.730  1.00  0.00    +0.093 A 
ATOM      9  N   UNL     1      45.561  56.109  12.700  1.00  0.00    -0.361 N 
ATOM     10  H   UNL     1      46.030  55.600  11.964  1.00  0.00    +0.166 HD
ENDROOT
BRANCH   1  11
ATOM     11  N   UNL     1      47.374  58.419  17.399  1.00  0.00    -0.326 N 
ATOM     12  C   UNL     1      47.908  57.742  18.487  1.00  0.00    +0.226 C 
ATOM     13  O   UNL     1      48.263  56.565  18.498  1.00  0.00    -0.274 OA
ATOM     14  H   UNL     1      47.381  59.431  17.436  1.00  0.00    +0.169 HD
BRANCH  12  15
ATOM     15  C   UNL     1      48.117  58.668  19.688  1.00  0.00    +0.072 C 
ATOM     16  C   UNL     1      47.166  59.862  19.632  1.00  0.00    +0.018 C 
ATOM     17  C   UNL     1      47.929  57.885  20.984  1.00  0.00    +0.018 C 
ENDBRANCH  12  15
ENDBRANCH   1  11
BRANCH   7  18
ATOM     18  C   UNL     1      42.625  57.752  14.223  1.00  0.00    +0.264 C 
BRANCH  18  19
ATOM     19  C   UNL     1      41.521  57.078  13.315  1.00  0.00    +0.104 C 
ATOM     20  O   UNL     1      41.194  57.833  12.343  1.00  0.00    -0.544 OA
ATOM     21  O   UNL     1      41.028  56.000  13.729  1.00  0.00    -0.544 OA
ENDBRANCH  18  19
BRANCH  18  22
ATOM     22  N   UNL     1      42.543  59.301  14.127  1.00  0.00    -0.321 N 
ATOM     23  C   UNL     1      42.114  59.919  15.448  1.00  0.00    +0.284 C 
ATOM     24  C   UNL     1      43.705  59.979  13.466  1.00  0.00    +0.284 C 
ATOM     25  C   UNL     1      43.315  60.542  16.183  1.00  0.00    +0.178 C 
ATOM     26  C   UNL     1      43.840  61.453  13.893  1.00  0.00    +0.178 C 
ATOM     27  N   UNL     1      43.963  61.581  15.360  1.00  0.00    -0.360 N 
ATOM     28  H   UNL     1      41.684  59.378  13.546  1.00  0.00    +0.349 HD
BRANCH  27  29
ATOM     29  C   UNL     1      44.855  62.490  15.915  1.00  0.00    +0.037 A 
ATOM     30  C   UNL     1      45.637  62.160  17.041  1.00  0.00    +0.029 A 
ATOM     31  C   UNL     1      45.041  63.777  15.375  1.00  0.00    +0.029 A 
ATOM     32  C   UNL     1      46.537  63.070  17.609  1.00  0.00    +0.041 A 
ATOM     33  C   UNL     1      45.936  64.694  15.942  1.00  0.00    +0.041 A 
ATOM     34  C   UNL     1      46.671  64.333  17.060  1.00  0.00    +0.123 A 
ATOM     35  F   UNL     1      47.530  65.207  17.605  1.00  0.00    -0.207 F 
ENDBRANCH  27  29
ENDBRANCH  18  22
ENDBRANCH   7  18
TORSDOF 6
ENDMDL
