MODEL 1
REMARK VINA RESULT:    -8.736      0.000      0.000
REMARK INTER + INTRA:         -15.696
REMARK INTER:                 -14.354
REMARK INTRA:                  -1.341
REMARK UNBOUND:                -1.341
REMARK SMILES C/C=C\[C@H](C(=O)NC(C)(C)CC(C)(C)C)N(Cc1ccco1)C(=O)c1cccc(O)c1O
REMARK SMILES IDX 4 1 3 2 2 3 1 4 5 5 6 6 7 7 8 9 9 10 10 11 11 12 12 13 13 14
REMARK SMILES IDX 14 15 15 16 16 17 17 18 18 19 19 20 22 21 20 22 21 23 23 24
REMARK SMILES IDX 24 25 25 26 26 27 31 28 27 29 29 30 28 31 32 32 30 34
REMARK H PARENT 7 8 32 33 30 35
ROOT
ATOM      1  C   UNL     1      50.312  51.443  18.862  1.00  0.00    +0.198 C 
ENDROOT
BRANCH   1   2
ATOM      2  C   UNL     1      51.371  50.784  19.718  1.00  0.00    +0.003 C 
ATOM      3  C   UNL     1      51.271  49.669  20.462  1.00  0.00    -0.032 C 
ATOM      4  C   UNL     1      50.074  48.795  20.643  1.00  0.00    +0.035 C 
ENDBRANCH   1   2
BRANCH   1   5
ATOM      5  C   UNL     1      50.034  50.676  17.531  1.00  0.00    +0.247 C 
ATOM      6  O   UNL     1      50.874  50.572  16.640  1.00  0.00    -0.272 OA
ATOM      7  N   UNL     1      48.744  50.184  17.422  1.00  0.00    -0.349 N 
ATOM      8  H   UNL     1      48.079  50.515  18.112  1.00  0.00    +0.164 HD
BRANCH   7   9
ATOM      9  C   UNL     1      48.190  49.481  16.252  1.00  0.00    +0.035 C 
ATOM     10  C   UNL     1      48.322  50.395  15.011  1.00  0.00    +0.034 C 
ATOM     11  C   UNL     1      48.942  48.173  15.972  1.00  0.00    +0.034 C 
BRANCH   9  12
ATOM     12  C   UNL     1      46.659  49.242  16.478  1.00  0.00    +0.034 C 
BRANCH  12  13
ATOM     13  C   UNL     1      46.123  48.148  17.458  1.00  0.00    -0.036 C 
ATOM     14  C   UNL     1      46.734  48.213  18.865  1.00  0.00    +0.011 C 
ATOM     15  C   UNL     1      46.314  46.729  16.889  1.00  0.00    +0.011 C 
ATOM     16  C   UNL     1      44.598  48.375  17.600  1.00  0.00    +0.011 C 
ENDBRANCH  12  13
ENDBRANCH   9  12
ENDBRANCH   7   9
ENDBRANCH   1   5
BRANCH   1  17
ATOM     17  N   UNL     1      50.584  52.885  18.667  1.00  0.00    -0.315 N 
BRANCH  17  18
ATOM     18  C   UNL     1      49.588  53.614  17.883  1.00  0.00    +0.196 C 
BRANCH  18  19
ATOM     19  C   UNL     1      49.055  54.761  18.663  1.00  0.00    +0.123 A 
ATOM     20  C   UNL     1      48.326  54.856  19.831  1.00  0.00    +0.047 A 
ATOM     21  O   UNL     1      49.319  56.011  18.178  1.00  0.00    -0.467 OA
ATOM     22  C   UNL     1      48.136  56.236  20.075  1.00  0.00    +0.042 A 
ATOM     23  C   UNL     1      48.761  56.897  19.044  1.00  0.00    +0.195 A 
ENDBRANCH  18  19
ENDBRANCH  17  18
BRANCH  17  24
ATOM     24  C   UNL     1      51.688  53.617  19.093  1.00  0.00    +0.259 C 
ATOM     25  O   UNL     1      52.694  53.779  18.397  1.00  0.00    -0.269 OA
BRANCH  24  26
ATOM     26  C   UNL     1      51.702  54.321  20.385  1.00  0.00    +0.085 A 
ATOM     27  C   UNL     1      51.531  53.629  21.589  1.00  0.00    +0.018 A 
ATOM     28  C   UNL     1      51.960  55.695  20.411  1.00  0.00    +0.170 A 
ATOM     29  C   UNL     1      51.521  54.327  22.801  1.00  0.00    +0.005 A 
ATOM     30  C   UNL     1      51.934  56.380  21.622  1.00  0.00    +0.158 A 
ATOM     31  C   UNL     1      51.708  55.710  22.817  1.00  0.00    +0.050 A 
BRANCH  28  32
ATOM     32  O   UNL     1      52.260  56.424  19.287  1.00  0.00    -0.504 OA
ATOM     33  H   UNL     1      53.186  56.739  19.394  1.00  0.00    +0.293 HD
ENDBRANCH  28  32
BRANCH  30  34
ATOM     34  O   UNL     1      52.152  57.729  21.646  1.00  0.00    -0.504 OA
ATOM     35  H   UNL     1      53.119  57.815  21.777  1.00  0.00    +0.293 HD
ENDBRANCH  30  34
ENDBRANCH  24  26
ENDBRANCH  17  24
ENDBRANCH   1  17
TORSDOF 12
ENDMDL
MODEL 2
REMARK VINA RESULT:    -8.162      1.887      4.764
REMARK INTER + INTRA:         -14.753
REMARK INTER:                 -13.985
REMARK INTRA:                  -0.768
REMARK UNBOUND:                -1.341
REMARK SMILES C/C=C\[C@H](C(=O)NC(C)(C)CC(C)(C)C)N(Cc1ccco1)C(=O)c1cccc(O)c1O
REMARK SMILES IDX 4 1 3 2 2 3 1 4 5 5 6 6 7 7 8 9 9 10 10 11 11 12 12 13 13 14
REMARK SMILES IDX 14 15 15 16 16 17 17 18 18 19 19 20 22 21 20 22 21 23 23 24
REMARK SMILES IDX 24 25 25 26 26 27 31 28 27 29 29 30 28 31 32 32 30 34
REMARK H PARENT 7 8 32 33 30 35
ROOT
ATOM      1  C   UNL     1      49.229  54.827  18.795  1.00  0.00    +0.198 C 
ENDROOT
BRANCH   1   2
ATOM      2  C   UNL     1      48.048  55.205  19.659  1.00  0.00    +0.003 C 
ATOM      3  C   UNL     1      47.533  56.427  19.886  1.00  0.00    -0.032 C 
ATOM      4  C   UNL     1      48.010  57.734  19.344  1.00  0.00    +0.035 C 
ENDBRANCH   1   2
BRANCH   1   5
ATOM      5  C   UNL     1      48.903  53.694  17.772  1.00  0.00    +0.247 C 
ATOM      6  O   UNL     1      48.611  53.925  16.601  1.00  0.00    -0.272 OA
ATOM      7  N   UNL     1      48.910  52.421  18.317  1.00  0.00    -0.349 N 
ATOM      8  H   UNL     1      48.947  52.369  19.329  1.00  0.00    +0.164 HD
BRANCH   7   9
ATOM      9  C   UNL     1      48.574  51.178  17.601  1.00  0.00    +0.035 C 
ATOM     10  C   UNL     1      48.854  49.975  18.530  1.00  0.00    +0.034 C 
ATOM     11  C   UNL     1      47.093  51.144  17.197  1.00  0.00    +0.034 C 
BRANCH   9  12
ATOM     12  C   UNL     1      49.524  51.029  16.366  1.00  0.00    +0.034 C 
BRANCH  12  13
ATOM     13  C   UNL     1      49.367  49.867  15.330  1.00  0.00    -0.036 C 
ATOM     14  C   UNL     1      48.308  50.129  14.251  1.00  0.00    +0.011 C 
ATOM     15  C   UNL     1      49.063  48.523  16.022  1.00  0.00    +0.011 C 
ATOM     16  C   UNL     1      50.732  49.708  14.618  1.00  0.00    +0.011 C 
ENDBRANCH  12  13
ENDBRANCH   9  12
ENDBRANCH   7   9
ENDBRANCH   1   5
BRANCH   1  17
ATOM     17  N   UNL     1      50.438  54.560  19.605  1.00  0.00    -0.315 N 
BRANCH  17  18
ATOM     18  C   UNL     1      50.424  55.109  20.960  1.00  0.00    +0.196 C 
BRANCH  18  19
ATOM     19  C   UNL     1      51.362  56.258  21.062  1.00  0.00    +0.123 A 
ATOM     20  C   UNL     1      51.368  57.527  20.519  1.00  0.00    +0.047 A 
ATOM     21  O   UNL     1      52.460  56.087  21.855  1.00  0.00    -0.467 OA
ATOM     22  C   UNL     1      52.532  58.166  21.007  1.00  0.00    +0.042 A 
ATOM     23  C   UNL     1      53.160  57.250  21.818  1.00  0.00    +0.195 A 
ENDBRANCH  18  19
ENDBRANCH  17  18
BRANCH  17  24
ATOM     24  C   UNL     1      51.601  53.897  19.222  1.00  0.00    +0.259 C 
ATOM     25  O   UNL     1      52.531  54.458  18.637  1.00  0.00    -0.269 OA
BRANCH  24  26
ATOM     26  C   UNL     1      51.837  52.484  19.560  1.00  0.00    +0.085 A 
ATOM     27  C   UNL     1      51.358  51.936  20.755  1.00  0.00    +0.018 A 
ATOM     28  C   UNL     1      52.490  51.661  18.638  1.00  0.00    +0.170 A 
ATOM     29  C   UNL     1      51.620  50.597  21.065  1.00  0.00    +0.005 A 
ATOM     30  C   UNL     1      52.757  50.334  18.964  1.00  0.00    +0.158 A 
ATOM     31  C   UNL     1      52.336  49.797  20.173  1.00  0.00    +0.050 A 
BRANCH  28  32
ATOM     32  O   UNL     1      52.881  52.090  17.394  1.00  0.00    -0.504 OA
ATOM     33  H   UNL     1      52.082  52.056  16.821  1.00  0.00    +0.293 HD
ENDBRANCH  28  32
BRANCH  30  34
ATOM     34  O   UNL     1      53.426  49.538  18.078  1.00  0.00    -0.504 OA
ATOM     35  H   UNL     1      52.719  49.152  17.519  1.00  0.00    +0.293 HD
ENDBRANCH  30  34
ENDBRANCH  24  26
ENDBRANCH  17  24
ENDBRANCH   1  17
TORSDOF 12
ENDMDL
MODEL 3
REMARK VINA RESULT:    -7.605      2.073      4.809
REMARK INTER + INTRA:         -13.837
REMARK INTER:                 -13.259
REMARK INTRA:                  -0.578
REMARK UNBOUND:                -1.341
REMARK SMILES C/C=C\[C@H](C(=O)NC(C)(C)CC(C)(C)C)N(Cc1ccco1)C(=O)c1cccc(O)c1O
REMARK SMILES IDX 4 1 3 2 2 3 1 4 5 5 6 6 7 7 8 9 9 10 10 11 11 12 12 13 13 14
REMARK SMILES IDX 14 15 15 16 16 17 17 18 18 19 19 20 22 21 20 22 21 23 23 24
REMARK SMILES IDX 24 25 25 26 26 27 31 28 27 29 29 30 28 31 32 32 30 34
REMARK H PARENT 7 8 32 33 30 35
ROOT
ATOM      1  C   UNL     1      49.610  55.490  19.174  1.00  0.00    +0.198 C 
ENDROOT
BRANCH   1   2
ATOM      2  C   UNL     1      48.572  55.719  20.250  1.00  0.00    +0.003 C 
ATOM      3  C   UNL     1      47.871  56.836  20.512  1.00  0.00    -0.032 C 
ATOM      4  C   UNL     1      47.948  58.150  19.807  1.00  0.00    +0.035 C 
ENDBRANCH   1   2
BRANCH   1   5
ATOM      5  C   UNL     1      49.119  54.534  18.041  1.00  0.00    +0.247 C 
ATOM      6  O   UNL     1      48.703  54.948  16.962  1.00  0.00    -0.272 OA
ATOM      7  N   UNL     1      49.135  53.193  18.388  1.00  0.00    -0.349 N 
ATOM      8  H   UNL     1      49.287  52.987  19.369  1.00  0.00    +0.164 HD
BRANCH   7   9
ATOM      9  C   UNL     1      48.666  52.083  17.542  1.00  0.00    +0.035 C 
ATOM     10  C   UNL     1      47.328  52.487  16.882  1.00  0.00    +0.034 C 
ATOM     11  C   UNL     1      49.674  51.756  16.431  1.00  0.00    +0.034 C 
BRANCH   9  12
ATOM     12  C   UNL     1      48.368  50.841  18.448  1.00  0.00    +0.034 C 
BRANCH  12  13
ATOM     13  C   UNL     1      47.800  49.504  17.868  1.00  0.00    -0.036 C 
ATOM     14  C   UNL     1      48.583  48.960  16.665  1.00  0.00    +0.011 C 
ATOM     15  C   UNL     1      46.313  49.634  17.487  1.00  0.00    +0.011 C 
ATOM     16  C   UNL     1      47.885  48.448  18.998  1.00  0.00    +0.011 C 
ENDBRANCH  12  13
ENDBRANCH   9  12
ENDBRANCH   7   9
ENDBRANCH   1   5
BRANCH   1  17
ATOM     17  N   UNL     1      50.918  55.102  19.747  1.00  0.00    -0.315 N 
BRANCH  17  18
ATOM     18  C   UNL     1      52.080  55.792  19.191  1.00  0.00    +0.196 C 
BRANCH  18  19
ATOM     19  C   UNL     1      52.566  56.832  20.136  1.00  0.00    +0.123 A 
ATOM     20  C   UNL     1      51.940  57.844  20.835  1.00  0.00    +0.047 A 
ATOM     21  O   UNL     1      53.902  56.829  20.421  1.00  0.00    -0.467 OA
ATOM     22  C   UNL     1      52.946  58.493  21.588  1.00  0.00    +0.042 A 
ATOM     23  C   UNL     1      54.120  57.837  21.305  1.00  0.00    +0.195 A 
ENDBRANCH  18  19
ENDBRANCH  17  18
BRANCH  17  24
ATOM     24  C   UNL     1      51.181  54.133  20.710  1.00  0.00    +0.259 C 
ATOM     25  O   UNL     1      51.150  54.364  21.922  1.00  0.00    -0.269 OA
BRANCH  24  26
ATOM     26  C   UNL     1      51.440  52.729  20.349  1.00  0.00    +0.085 A 
ATOM     27  C   UNL     1      52.158  52.400  19.195  1.00  0.00    +0.018 A 
ATOM     28  C   UNL     1      51.022  51.714  21.214  1.00  0.00    +0.170 A 
ATOM     29  C   UNL     1      52.367  51.058  18.860  1.00  0.00    +0.005 A 
ATOM     30  C   UNL     1      51.224  50.382  20.863  1.00  0.00    +0.158 A 
ATOM     31  C   UNL     1      51.884  50.044  19.690  1.00  0.00    +0.050 A 
BRANCH  28  32
ATOM     32  O   UNL     1      50.422  51.957  22.425  1.00  0.00    -0.504 OA
ATOM     33  H   UNL     1      49.495  52.222  22.231  1.00  0.00    +0.293 HD
ENDBRANCH  28  32
BRANCH  30  34
ATOM     34  O   UNL     1      50.785  49.386  21.690  1.00  0.00    -0.504 OA
ATOM     35  H   UNL     1      51.561  48.798  21.793  1.00  0.00    +0.293 HD
ENDBRANCH  30  34
ENDBRANCH  24  26
ENDBRANCH  17  24
ENDBRANCH   1  17
TORSDOF 12
ENDMDL
MODEL 4
REMARK VINA RESULT:    -6.935      1.325      2.027
REMARK INTER + INTRA:         -12.737
REMARK INTER:                 -12.126
REMARK INTRA:                  -0.611
REMARK UNBOUND:                -1.341
REMARK SMILES C/C=C\[C@H](C(=O)NC(C)(C)CC(C)(C)C)N(Cc1ccco1)C(=O)c1cccc(O)c1O
REMARK SMILES IDX 4 1 3 2 2 3 1 4 5 5 6 6 7 7 8 9 9 10 10 11 11 12 12 13 13 14
REMARK SMILES IDX 14 15 15 16 16 17 17 18 18 19 19 20 22 21 20 22 21 23 23 24
REMARK SMILES IDX 24 25 25 26 26 27 31 28 27 29 29 30 28 31 32 32 30 34
REMARK H PARENT 7 8 32 33 30 35
ROOT
ATOM      1  C   UNL     1      50.258  51.450  18.566  1.00  0.00    +0.198 C 
ENDROOT
BRANCH   1   2
ATOM      2  C   UNL     1      51.606  51.148  17.949  1.00  0.00    +0.003 C 
ATOM      3  C   UNL     1      52.648  50.495  18.492  1.00  0.00    -0.032 C 
ATOM      4  C   UNL     1      52.745  49.907  19.861  1.00  0.00    +0.035 C 
ENDBRANCH   1   2
BRANCH   1   5
ATOM      5  C   UNL     1      49.060  50.952  17.698  1.00  0.00    +0.247 C 
ATOM      6  O   UNL     1      48.821  51.404  16.581  1.00  0.00    -0.272 OA
ATOM      7  N   UNL     1      48.263  50.009  18.325  1.00  0.00    -0.349 N 
ATOM      8  H   UNL     1      48.425  49.874  19.316  1.00  0.00    +0.164 HD
BRANCH   7   9
ATOM      9  C   UNL     1      47.034  49.418  17.768  1.00  0.00    +0.035 C 
ATOM     10  C   UNL     1      46.472  48.389  18.776  1.00  0.00    +0.034 C 
ATOM     11  C   UNL     1      45.960  50.485  17.516  1.00  0.00    +0.034 C 
BRANCH   9  12
ATOM     12  C   UNL     1      47.393  48.627  16.465  1.00  0.00    +0.034 C 
BRANCH  12  13
ATOM     13  C   UNL     1      46.327  47.800  15.673  1.00  0.00    -0.036 C 
ATOM     14  C   UNL     1      44.875  48.141  16.033  1.00  0.00    +0.011 C 
ATOM     15  C   UNL     1      46.546  46.283  15.835  1.00  0.00    +0.011 C 
ATOM     16  C   UNL     1      46.526  48.125  14.172  1.00  0.00    +0.011 C 
ENDBRANCH  12  13
ENDBRANCH   9  12
ENDBRANCH   7   9
ENDBRANCH   1   5
BRANCH   1  17
ATOM     17  N   UNL     1      50.146  52.869  18.969  1.00  0.00    -0.315 N 
BRANCH  17  18
ATOM     18  C   UNL     1      48.784  53.391  19.069  1.00  0.00    +0.196 C 
BRANCH  18  19
ATOM     19  C   UNL     1      48.589  54.515  18.116  1.00  0.00    +0.123 A 
ATOM     20  C   UNL     1      48.258  54.577  16.778  1.00  0.00    +0.047 A 
ATOM     21  O   UNL     1      48.746  55.778  18.613  1.00  0.00    -0.467 OA
ATOM     22  C   UNL     1      48.209  55.949  16.439  1.00  0.00    +0.042 A 
ATOM     23  C   UNL     1      48.509  56.639  17.590  1.00  0.00    +0.195 A 
ENDBRANCH  18  19
ENDBRANCH  17  18
BRANCH  17  24
ATOM     24  C   UNL     1      51.172  53.777  19.214  1.00  0.00    +0.259 C 
ATOM     25  O   UNL     1      51.940  54.176  18.335  1.00  0.00    -0.269 OA
BRANCH  24  26
ATOM     26  C   UNL     1      51.366  54.391  20.539  1.00  0.00    +0.085 A 
ATOM     27  C   UNL     1      51.477  53.606  21.691  1.00  0.00    +0.018 A 
ATOM     28  C   UNL     1      51.511  55.778  20.633  1.00  0.00    +0.170 A 
ATOM     29  C   UNL     1      51.633  54.216  22.940  1.00  0.00    +0.005 A 
ATOM     30  C   UNL     1      51.653  56.374  21.883  1.00  0.00    +0.158 A 
ATOM     31  C   UNL     1      51.706  55.606  23.038  1.00  0.00    +0.050 A 
BRANCH  28  32
ATOM     32  O   UNL     1      51.538  56.607  19.539  1.00  0.00    -0.504 OA
ATOM     33  H   UNL     1      51.939  57.454  19.837  1.00  0.00    +0.293 HD
ENDBRANCH  28  32
BRANCH  30  34
ATOM     34  O   UNL     1      51.760  57.733  21.981  1.00  0.00    -0.504 OA
ATOM     35  H   UNL     1      52.684  57.881  22.270  1.00  0.00    +0.293 HD
ENDBRANCH  30  34
ENDBRANCH  24  26
ENDBRANCH  17  24
ENDBRANCH   1  17
TORSDOF 12
ENDMDL
MODEL 5
REMARK VINA RESULT:    -6.337      1.601      3.321
REMARK INTER + INTRA:         -11.753
REMARK INTER:                 -12.830
REMARK INTRA:                   1.077
REMARK UNBOUND:                -1.341
REMARK SMILES C/C=C\[C@H](C(=O)NC(C)(C)CC(C)(C)C)N(Cc1ccco1)C(=O)c1cccc(O)c1O
REMARK SMILES IDX 4 1 3 2 2 3 1 4 5 5 6 6 7 7 8 9 9 10 10 11 11 12 12 13 13 14
REMARK SMILES IDX 14 15 15 16 16 17 17 18 18 19 19 20 22 21 20 22 21 23 23 24
REMARK SMILES IDX 24 25 25 26 26 27 31 28 27 29 29 30 28 31 32 32 30 34
REMARK H PARENT 7 8 32 33 30 35
ROOT
ATOM      1  C   UNL     1      49.875  51.250  18.871  1.00  0.00    +0.198 C 
ENDROOT
BRANCH   1   2
ATOM      2  C   UNL     1      51.206  50.670  19.293  1.00  0.00    +0.003 C 
ATOM      3  C   UNL     1      51.449  49.681  20.171  1.00  0.00    -0.032 C 
ATOM      4  C   UNL     1      50.454  48.903  20.968  1.00  0.00    +0.035 C 
ENDBRANCH   1   2
BRANCH   1   5
ATOM      5  C   UNL     1      49.004  50.251  18.047  1.00  0.00    +0.247 C 
ATOM      6  O   UNL     1      48.160  49.524  18.567  1.00  0.00    -0.272 OA
ATOM      7  N   UNL     1      49.313  50.213  16.697  1.00  0.00    -0.349 N 
ATOM      8  H   UNL     1      50.165  50.688  16.420  1.00  0.00    +0.164 HD
BRANCH   7   9
ATOM      9  C   UNL     1      48.699  49.319  15.700  1.00  0.00    +0.035 C 
ATOM     10  C   UNL     1      49.265  49.664  14.303  1.00  0.00    +0.034 C 
ATOM     11  C   UNL     1      49.009  47.846  15.998  1.00  0.00    +0.034 C 
BRANCH   9  12
ATOM     12  C   UNL     1      47.159  49.596  15.647  1.00  0.00    +0.034 C 
BRANCH  12  13
ATOM     13  C   UNL     1      46.101  48.477  15.922  1.00  0.00    -0.036 C 
ATOM     14  C   UNL     1      45.262  48.092  14.696  1.00  0.00    +0.011 C 
ATOM     15  C   UNL     1      45.159  48.855  17.082  1.00  0.00    +0.011 C 
ATOM     16  C   UNL     1      46.882  47.217  16.369  1.00  0.00    +0.011 C 
ENDBRANCH  12  13
ENDBRANCH   9  12
ENDBRANCH   7   9
ENDBRANCH   1   5
BRANCH   1  17
ATOM     17  N   UNL     1      50.033  52.570  18.222  1.00  0.00    -0.315 N 
BRANCH  17  18
ATOM     18  C   UNL     1      51.395  53.100  18.192  1.00  0.00    +0.196 C 
BRANCH  18  19
ATOM     19  C   UNL     1      51.635  53.977  19.368  1.00  0.00    +0.123 A 
ATOM     20  C   UNL     1      52.016  55.297  19.504  1.00  0.00    +0.047 A 
ATOM     21  O   UNL     1      51.442  53.421  20.600  1.00  0.00    -0.467 OA
ATOM     22  C   UNL     1      52.058  55.561  20.892  1.00  0.00    +0.042 A 
ATOM     23  C   UNL     1      51.697  54.390  21.517  1.00  0.00    +0.195 A 
ENDBRANCH  18  19
ENDBRANCH  17  18
BRANCH  17  24
ATOM     24  C   UNL     1      49.043  53.388  17.684  1.00  0.00    +0.259 C 
ATOM     25  O   UNL     1      48.379  53.073  16.692  1.00  0.00    -0.269 OA
BRANCH  24  26
ATOM     26  C   UNL     1      48.661  54.663  18.313  1.00  0.00    +0.085 A 
ATOM     27  C   UNL     1      48.600  54.795  19.704  1.00  0.00    +0.018 A 
ATOM     28  C   UNL     1      48.425  55.778  17.504  1.00  0.00    +0.170 A 
ATOM     29  C   UNL     1      48.208  56.010  20.275  1.00  0.00    +0.005 A 
ATOM     30  C   UNL     1      48.022  56.978  18.083  1.00  0.00    +0.158 A 
ATOM     31  C   UNL     1      47.903  57.101  19.461  1.00  0.00    +0.050 A 
BRANCH  28  32
ATOM     32  O   UNL     1      48.583  55.765  16.140  1.00  0.00    -0.504 OA
ATOM     33  H   UNL     1      49.520  56.007  15.964  1.00  0.00    +0.293 HD
ENDBRANCH  28  32
BRANCH  30  34
ATOM     34  O   UNL     1      47.756  58.060  17.292  1.00  0.00    -0.504 OA
ATOM     35  H   UNL     1      48.391  58.742  17.595  1.00  0.00    +0.293 HD
ENDBRANCH  30  34
ENDBRANCH  24  26
ENDBRANCH  17  24
ENDBRANCH   1  17
TORSDOF 12
ENDMDL
