MODEL 1
REMARK VINA RESULT:    -8.398      0.000      0.000
REMARK INTER + INTRA:         -11.339
REMARK INTER:                 -10.853
REMARK INTRA:                  -0.486
REMARK UNBOUND:                -0.486
REMARK SMILES CC[C@H](CC(N)=[NH2+])N1CCN(c2ccccc2)CC1
REMARK SMILES IDX 3 1 2 2 1 3 4 4 5 5 7 6 6 7 8 12 9 13 19 14 10 15 18 16
REMARK SMILES IDX 11 17 12 18 13 19 17 20 14 21 16 22 15 23
REMARK H PARENT 7 8 7 9 6 10 6 11
ROOT
ATOM      1  C   UNL     1      50.267  50.472  18.712  1.00  0.00    +0.068 C 
ENDROOT
BRANCH   1   2
ATOM      2  C   UNL     1      48.925  50.007  18.091  1.00  0.00    +0.016 C 
ATOM      3  C   UNL     1      48.153  48.886  18.772  1.00  0.00    +0.005 C 
ENDBRANCH   1   2
BRANCH   1   4
ATOM      4  C   UNL     1      50.529  49.919  20.134  1.00  0.00    +0.146 C 
BRANCH   4   5
ATOM      5  C   UNL     1      51.573  48.870  20.244  1.00  0.00    +0.239 C 
ATOM      6  N   UNL     1      52.767  49.098  19.739  1.00  0.00    -0.291 N 
ATOM      7  N   UNL     1      51.283  47.772  20.903  1.00  0.00    -0.291 N 
ATOM      8  H   UNL     1      53.519  48.421  19.809  1.00  0.00    +0.301 HD
ATOM      9  H   UNL     1      52.981  49.965  19.258  1.00  0.00    +0.301 HD
ATOM     10  H   UNL     1      50.322  47.648  21.230  1.00  0.00    +0.301 HD
ATOM     11  H   UNL     1      51.937  47.016  21.055  1.00  0.00    +0.301 HD
ENDBRANCH   4   5
ENDBRANCH   1   4
BRANCH   1  12
ATOM     12  N   UNL     1      50.666  51.899  18.581  1.00  0.00    -0.296 NA
ATOM     13  C   UNL     1      49.504  52.714  18.107  1.00  0.00    +0.106 C 
ATOM     14  C   UNL     1      51.268  52.552  19.769  1.00  0.00    +0.106 C 
ATOM     15  C   UNL     1      49.616  54.239  18.349  1.00  0.00    +0.132 C 
ATOM     16  C   UNL     1      50.347  53.462  20.617  1.00  0.00    +0.132 C 
ATOM     17  N   UNL     1      49.780  54.525  19.782  1.00  0.00    -0.369 N 
BRANCH  17  18
ATOM     18  C   UNL     1      49.327  55.715  20.330  1.00  0.00    +0.037 A 
ATOM     19  C   UNL     1      48.095  56.277  19.959  1.00  0.00    +0.026 A 
ATOM     20  C   UNL     1      50.079  56.434  21.275  1.00  0.00    +0.026 A 
ATOM     21  C   UNL     1      47.633  57.483  20.500  1.00  0.00    +0.002 A 
ATOM     22  C   UNL     1      49.624  57.639  21.825  1.00  0.00    +0.002 A 
ATOM     23  C   UNL     1      48.400  58.166  21.435  1.00  0.00    +0.000 A 
ENDBRANCH  17  18
ENDBRANCH   1  12
TORSDOF 5
ENDMDL
MODEL 2
REMARK VINA RESULT:    -7.164      2.532      6.581
REMARK INTER + INTRA:          -9.743
REMARK INTER:                  -9.293
REMARK INTRA:                  -0.451
REMARK UNBOUND:                -0.486
REMARK SMILES CC[C@H](CC(N)=[NH2+])N1CCN(c2ccccc2)CC1
REMARK SMILES IDX 3 1 2 2 1 3 4 4 5 5 7 6 6 7 8 12 9 13 19 14 10 15 18 16
REMARK SMILES IDX 11 17 12 18 13 19 17 20 14 21 16 22 15 23
REMARK H PARENT 7 8 7 9 6 10 6 11
ROOT
ATOM      1  C   UNL     1      50.532  52.931  19.430  1.00  0.00    +0.068 C 
ENDROOT
BRANCH   1   2
ATOM      2  C   UNL     1      50.158  54.432  19.329  1.00  0.00    +0.016 C 
ATOM      3  C   UNL     1      48.829  54.895  19.908  1.00  0.00    +0.005 C 
ENDBRANCH   1   2
BRANCH   1   4
ATOM      4  C   UNL     1      51.894  52.666  20.116  1.00  0.00    +0.146 C 
BRANCH   4   5
ATOM      5  C   UNL     1      51.836  52.200  21.524  1.00  0.00    +0.239 C 
ATOM      6  N   UNL     1      52.082  50.935  21.792  1.00  0.00    -0.291 N 
ATOM      7  N   UNL     1      51.603  53.088  22.463  1.00  0.00    -0.291 N 
ATOM      8  H   UNL     1      52.075  50.575  22.740  1.00  0.00    +0.301 HD
ATOM      9  H   UNL     1      52.288  50.268  21.056  1.00  0.00    +0.301 HD
ATOM     10  H   UNL     1      51.379  54.043  22.174  1.00  0.00    +0.301 HD
ATOM     11  H   UNL     1      51.573  52.871  23.450  1.00  0.00    +0.301 HD
ENDBRANCH   4   5
ENDBRANCH   1   4
BRANCH   1  12
ATOM     12  N   UNL     1      50.315  52.053  18.249  1.00  0.00    -0.296 NA
ATOM     13  C   UNL     1      50.018  50.656  18.698  1.00  0.00    +0.106 C 
ATOM     14  C   UNL     1      49.291  52.476  17.262  1.00  0.00    +0.106 C 
ATOM     15  C   UNL     1      49.338  49.748  17.644  1.00  0.00    +0.132 C 
ATOM     16  C   UNL     1      47.909  51.784  17.338  1.00  0.00    +0.132 C 
ATOM     17  N   UNL     1      48.063  50.333  17.203  1.00  0.00    -0.369 N 
BRANCH  17  18
ATOM     18  C   UNL     1      47.020  49.529  16.769  1.00  0.00    +0.037 A 
ATOM     19  C   UNL     1      47.053  48.887  15.520  1.00  0.00    +0.026 A 
ATOM     20  C   UNL     1      45.865  49.324  17.543  1.00  0.00    +0.026 A 
ATOM     21  C   UNL     1      46.000  48.082  15.068  1.00  0.00    +0.002 A 
ATOM     22  C   UNL     1      44.809  48.517  17.102  1.00  0.00    +0.002 A 
ATOM     23  C   UNL     1      44.876  47.897  15.861  1.00  0.00    +0.000 A 
ENDBRANCH  17  18
ENDBRANCH   1  12
TORSDOF 5
ENDMDL
MODEL 3
REMARK VINA RESULT:    -6.681      2.248      7.096
REMARK INTER + INTRA:          -9.119
REMARK INTER:                  -8.420
REMARK INTRA:                  -0.699
REMARK UNBOUND:                -0.486
REMARK SMILES CC[C@H](CC(N)=[NH2+])N1CCN(c2ccccc2)CC1
REMARK SMILES IDX 3 1 2 2 1 3 4 4 5 5 7 6 6 7 8 12 9 13 19 14 10 15 18 16
REMARK SMILES IDX 11 17 12 18 13 19 17 20 14 21 16 22 15 23
REMARK H PARENT 7 8 7 9 6 10 6 11
ROOT
ATOM      1  C   UNL     1      49.118  55.688  19.946  1.00  0.00    +0.068 C 
ENDROOT
BRANCH   1   2
ATOM      2  C   UNL     1      48.354  56.979  19.555  1.00  0.00    +0.016 C 
ATOM      3  C   UNL     1      47.526  57.690  20.616  1.00  0.00    +0.005 C 
ENDBRANCH   1   2
BRANCH   1   4
ATOM      4  C   UNL     1      50.072  55.862  21.153  1.00  0.00    +0.146 C 
BRANCH   4   5
ATOM      5  C   UNL     1      51.138  56.884  21.001  1.00  0.00    +0.239 C 
ATOM      6  N   UNL     1      51.992  56.778  20.005  1.00  0.00    -0.291 N 
ATOM      7  N   UNL     1      51.148  57.898  21.835  1.00  0.00    -0.291 N 
ATOM      8  H   UNL     1      52.722  57.463  19.848  1.00  0.00    +0.301 HD
ATOM      9  H   UNL     1      51.950  56.002  19.353  1.00  0.00    +0.301 HD
ATOM     10  H   UNL     1      50.480  57.889  22.609  1.00  0.00    +0.301 HD
ATOM     11  H   UNL     1      51.815  58.656  21.793  1.00  0.00    +0.301 HD
ENDBRANCH   4   5
ENDBRANCH   1   4
BRANCH   1  12
ATOM     12  N   UNL     1      49.715  54.850  18.872  1.00  0.00    -0.296 NA
ATOM     13  C   UNL     1      50.281  53.595  19.458  1.00  0.00    +0.106 C 
ATOM     14  C   UNL     1      48.849  54.502  17.718  1.00  0.00    +0.106 C 
ATOM     15  C   UNL     1      50.522  52.440  18.455  1.00  0.00    +0.132 C 
ATOM     16  C   UNL     1      48.219  53.089  17.709  1.00  0.00    +0.132 C 
ATOM     17  N   UNL     1      49.268  52.068  17.785  1.00  0.00    -0.369 N 
BRANCH  17  18
ATOM     18  C   UNL     1      49.056  50.775  17.331  1.00  0.00    +0.037 A 
ATOM     19  C   UNL     1      48.866  49.703  18.219  1.00  0.00    +0.026 A 
ATOM     20  C   UNL     1      49.033  50.460  15.962  1.00  0.00    +0.026 A 
ATOM     21  C   UNL     1      48.661  48.392  17.771  1.00  0.00    +0.002 A 
ATOM     22  C   UNL     1      48.824  49.152  15.504  1.00  0.00    +0.002 A 
ATOM     23  C   UNL     1      48.640  48.117  16.410  1.00  0.00    +0.000 A 
ENDBRANCH  17  18
ENDBRANCH   1  12
TORSDOF 5
ENDMDL
MODEL 4
REMARK VINA RESULT:    -6.359      2.386      6.684
REMARK INTER + INTRA:          -8.703
REMARK INTER:                  -8.216
REMARK INTRA:                  -0.487
REMARK UNBOUND:                -0.486
REMARK SMILES CC[C@H](CC(N)=[NH2+])N1CCN(c2ccccc2)CC1
REMARK SMILES IDX 3 1 2 2 1 3 4 4 5 5 7 6 6 7 8 12 9 13 19 14 10 15 18 16
REMARK SMILES IDX 11 17 12 18 13 19 17 20 14 21 16 22 15 23
REMARK H PARENT 7 8 7 9 6 10 6 11
ROOT
ATOM      1  C   UNL     1      51.993  53.787  20.365  1.00  0.00    +0.068 C 
ENDROOT
BRANCH   1   2
ATOM      2  C   UNL     1      51.050  54.067  21.563  1.00  0.00    +0.016 C 
ATOM      3  C   UNL     1      51.638  54.663  22.833  1.00  0.00    +0.005 C 
ENDBRANCH   1   2
BRANCH   1   4
ATOM      4  C   UNL     1      52.175  54.992  19.410  1.00  0.00    +0.146 C 
BRANCH   4   5
ATOM      5  C   UNL     1      51.141  56.054  19.495  1.00  0.00    +0.239 C 
ATOM      6  N   UNL     1      51.396  57.144  20.187  1.00  0.00    -0.291 N 
ATOM      7  N   UNL     1      50.027  55.891  18.818  1.00  0.00    -0.291 N 
ATOM      8  H   UNL     1      50.730  57.905  20.256  1.00  0.00    +0.301 HD
ATOM      9  H   UNL     1      52.274  57.264  20.681  1.00  0.00    +0.301 HD
ATOM     10  H   UNL     1      49.883  55.000  18.339  1.00  0.00    +0.301 HD
ATOM     11  H   UNL     1      49.279  56.571  18.792  1.00  0.00    +0.301 HD
ENDBRANCH   4   5
ENDBRANCH   1   4
BRANCH   1  12
ATOM     12  N   UNL     1      51.862  52.501  19.630  1.00  0.00    -0.296 NA
ATOM     13  C   UNL     1      51.045  51.535  20.430  1.00  0.00    +0.106 C 
ATOM     14  C   UNL     1      51.333  52.557  18.244  1.00  0.00    +0.106 C 
ATOM     15  C   UNL     1      50.447  50.348  19.635  1.00  0.00    +0.132 C 
ATOM     16  C   UNL     1      49.843  52.188  18.042  1.00  0.00    +0.132 C 
ATOM     17  N   UNL     1      49.585  50.836  18.548  1.00  0.00    -0.369 N 
BRANCH  17  18
ATOM     18  C   UNL     1      48.514  50.083  18.092  1.00  0.00    +0.037 A 
ATOM     19  C   UNL     1      48.045  48.963  18.799  1.00  0.00    +0.026 A 
ATOM     20  C   UNL     1      47.849  50.385  16.892  1.00  0.00    +0.026 A 
ATOM     21  C   UNL     1      46.970  48.191  18.341  1.00  0.00    +0.002 A 
ATOM     22  C   UNL     1      46.770  49.620  16.428  1.00  0.00    +0.002 A 
ATOM     23  C   UNL     1      46.332  48.520  17.153  1.00  0.00    +0.000 A 
ENDBRANCH  17  18
ENDBRANCH   1  12
TORSDOF 5
ENDMDL
MODEL 5
REMARK VINA RESULT:    -6.051      7.238     12.088
REMARK INTER + INTRA:          -8.305
REMARK INTER:                  -7.644
REMARK INTRA:                  -0.661
REMARK UNBOUND:                -0.486
REMARK SMILES CC[C@H](CC(N)=[NH2+])N1CCN(c2ccccc2)CC1
REMARK SMILES IDX 3 1 2 2 1 3 4 4 5 5 7 6 6 7 8 12 9 13 19 14 10 15 18 16
REMARK SMILES IDX 11 17 12 18 13 19 17 20 14 21 16 22 15 23
REMARK H PARENT 7 8 7 9 6 10 6 11
ROOT
ATOM      1  C   UNL     1      44.516  64.711  18.018  1.00  0.00    +0.068 C 
ENDROOT
BRANCH   1   2
ATOM      2  C   UNL     1      43.280  65.636  17.872  1.00  0.00    +0.016 C 
ATOM      3  C   UNL     1      43.318  66.750  16.836  1.00  0.00    +0.005 C 
ENDBRANCH   1   2
BRANCH   1   4
ATOM      4  C   UNL     1      45.345  64.557  16.720  1.00  0.00    +0.146 C 
BRANCH   4   5
ATOM      5  C   UNL     1      46.771  64.962  16.804  1.00  0.00    +0.239 C 
ATOM      6  N   UNL     1      47.707  64.052  16.643  1.00  0.00    -0.291 N 
ATOM      7  N   UNL     1      47.046  66.235  16.974  1.00  0.00    -0.291 N 
ATOM      8  H   UNL     1      48.694  64.284  16.670  1.00  0.00    +0.301 HD
ATOM      9  H   UNL     1      47.475  63.077  16.484  1.00  0.00    +0.301 HD
ATOM     10  H   UNL     1      46.265  66.877  17.135  1.00  0.00    +0.301 HD
ATOM     11  H   UNL     1      47.984  66.609  17.015  1.00  0.00    +0.301 HD
ENDBRANCH   4   5
ENDBRANCH   1   4
BRANCH   1  12
ATOM     12  N   UNL     1      44.371  63.424  18.749  1.00  0.00    -0.296 NA
ATOM     13  C   UNL     1      44.342  62.285  17.780  1.00  0.00    +0.106 C 
ATOM     14  C   UNL     1      45.359  63.131  19.817  1.00  0.00    +0.106 C 
ATOM     15  C   UNL     1      44.648  60.890  18.380  1.00  0.00    +0.132 C 
ATOM     16  C   UNL     1      46.515  62.164  19.464  1.00  0.00    +0.132 C 
ATOM     17  N   UNL     1      45.976  60.879  19.010  1.00  0.00    -0.369 N 
BRANCH  17  18
ATOM     18  C   UNL     1      46.723  59.713  19.082  1.00  0.00    +0.037 A 
ATOM     19  C   UNL     1      47.147  59.183  20.312  1.00  0.00    +0.026 A 
ATOM     20  C   UNL     1      47.112  59.004  17.933  1.00  0.00    +0.026 A 
ATOM     21  C   UNL     1      47.910  58.012  20.395  1.00  0.00    +0.002 A 
ATOM     22  C   UNL     1      47.872  57.829  18.006  1.00  0.00    +0.002 A 
ATOM     23  C   UNL     1      48.274  57.334  19.239  1.00  0.00    +0.000 A 
ENDBRANCH  17  18
ENDBRANCH   1  12
TORSDOF 5
ENDMDL
