MODEL 1
REMARK VINA RESULT:    -8.592      0.000      0.000
REMARK INTER + INTRA:         -15.785
REMARK INTER:                 -13.866
REMARK INTRA:                  -1.919
REMARK UNBOUND:                -1.919
REMARK SMILES CCCCNC(=O)[C@H](c1ccc(O)cc1)N(Cc1ccc(C)o1)C(=O)[C@@H]1CCC(=O)N1
REMARK SMILES IDX 5 1 6 2 7 3 4 5 3 6 2 7 1 8 8 9 9 10 10 11 15 12 11 13 14 14
REMARK SMILES IDX 12 15 13 16 16 18 17 19 18 20 19 21 23 22 20 23 21 24 22 25
REMARK SMILES IDX 24 26 25 27 26 28 27 29 31 30 28 31 29 32 30 33
REMARK H PARENT 5 4 13 17 31 34
ROOT
ATOM      1  N   UNL     1      48.443  51.851  17.756  1.00  0.00    -0.354 N 
ATOM      2  C   UNL     1      48.908  53.150  17.610  1.00  0.00    +0.247 C 
ATOM      3  O   UNL     1      48.318  53.973  16.908  1.00  0.00    -0.272 OA
ATOM      4  H   UNL     1      49.099  51.157  18.097  1.00  0.00    +0.163 HD
ENDROOT
BRANCH   1   5
ATOM      5  C   UNL     1      47.290  51.387  17.012  1.00  0.00    +0.116 C 
BRANCH   5   6
ATOM      6  C   UNL     1      47.149  49.871  17.110  1.00  0.00    +0.021 C 
BRANCH   6   7
ATOM      7  C   UNL     1      47.715  49.291  18.407  1.00  0.00    -0.002 C 
ATOM      8  C   UNL     1      49.014  48.525  18.213  1.00  0.00    +0.004 C 
ENDBRANCH   6   7
ENDBRANCH   5   6
ENDBRANCH   1   5
BRANCH   2   9
ATOM      9  C   UNL     1      50.272  53.441  18.317  1.00  0.00    +0.205 C 
BRANCH   9  10
ATOM     10  C   UNL     1      50.992  52.224  18.898  1.00  0.00    -0.016 A 
ATOM     11  C   UNL     1      51.913  51.534  18.091  1.00  0.00    +0.010 A 
ATOM     12  C   UNL     1      50.801  51.786  20.220  1.00  0.00    +0.010 A 
ATOM     13  C   UNL     1      52.607  50.428  18.584  1.00  0.00    +0.046 A 
ATOM     14  C   UNL     1      51.496  50.679  20.715  1.00  0.00    +0.046 A 
ATOM     15  C   UNL     1      52.393  50.009  19.891  1.00  0.00    +0.115 A 
BRANCH  15  16
ATOM     16  O   UNL     1      53.094  48.927  20.333  1.00  0.00    -0.508 OA
ATOM     17  H   UNL     1      54.029  49.177  20.421  1.00  0.00    +0.293 HD
ENDBRANCH  15  16
ENDBRANCH   9  10
BRANCH   9  18
ATOM     18  N   UNL     1      50.169  54.590  19.250  1.00  0.00    -0.317 N 
BRANCH  18  19
ATOM     19  C   UNL     1      48.910  54.838  19.966  1.00  0.00    +0.196 C 
BRANCH  19  20
ATOM     20  C   UNL     1      48.457  56.248  19.887  1.00  0.00    +0.123 A 
ATOM     21  C   UNL     1      48.240  57.228  20.835  1.00  0.00    +0.048 A 
ATOM     22  O   UNL     1      48.111  56.717  18.655  1.00  0.00    -0.464 OA
ATOM     23  C   UNL     1      47.792  58.374  20.134  1.00  0.00    +0.045 A 
ATOM     24  C   UNL     1      47.743  58.017  18.805  1.00  0.00    +0.101 A 
ATOM     25  C   UNL     1      47.383  58.742  17.572  1.00  0.00    +0.087 C 
ENDBRANCH  19  20
ENDBRANCH  18  19
BRANCH  18  26
ATOM     26  C   UNL     1      51.282  55.425  19.301  1.00  0.00    +0.246 C 
ATOM     27  O   UNL     1      51.452  56.311  18.457  1.00  0.00    -0.272 OA
BRANCH  26  28
ATOM     28  C   UNL     1      52.282  55.280  20.472  1.00  0.00    +0.172 C 
ATOM     29  C   UNL     1      51.553  55.101  21.798  1.00  0.00    +0.045 C 
ATOM     30  N   UNL     1      53.042  56.489  20.693  1.00  0.00    -0.344 N 
ATOM     31  C   UNL     1      51.345  56.526  22.309  1.00  0.00    +0.102 C 
ATOM     32  C   UNL     1      52.460  57.293  21.651  1.00  0.00    +0.220 C 
ATOM     33  O   UNL     1      52.790  58.441  21.892  1.00  0.00    -0.275 OA
ATOM     34  H   UNL     1      53.607  56.944  19.986  1.00  0.00    +0.164 HD
ENDBRANCH  26  28
ENDBRANCH  18  26
ENDBRANCH   9  18
ENDBRANCH   2   9
TORSDOF 11
ENDMDL
MODEL 2
REMARK VINA RESULT:    -7.630      2.179      5.367
REMARK INTER + INTRA:         -14.232
REMARK INTER:                 -12.232
REMARK INTRA:                  -2.001
REMARK UNBOUND:                -1.919
REMARK SMILES CCCCNC(=O)[C@H](c1ccc(O)cc1)N(Cc1ccc(C)o1)C(=O)[C@@H]1CCC(=O)N1
REMARK SMILES IDX 5 1 6 2 7 3 4 5 3 6 2 7 1 8 8 9 9 10 10 11 15 12 11 13 14 14
REMARK SMILES IDX 12 15 13 16 16 18 17 19 18 20 19 21 23 22 20 23 21 24 22 25
REMARK SMILES IDX 24 26 25 27 26 28 27 29 31 30 28 31 29 32 30 33
REMARK H PARENT 5 4 13 17 31 34
ROOT
ATOM      1  N   UNL     1      49.484  54.999  18.201  1.00  0.00    -0.354 N 
ATOM      2  C   UNL     1      48.966  53.719  18.058  1.00  0.00    +0.247 C 
ATOM      3  O   UNL     1      47.753  53.518  17.985  1.00  0.00    -0.272 OA
ATOM      4  H   UNL     1      50.437  55.080  18.537  1.00  0.00    +0.163 HD
ENDROOT
BRANCH   1   5
ATOM      5  C   UNL     1      48.608  56.141  18.361  1.00  0.00    +0.116 C 
BRANCH   5   6
ATOM      6  C   UNL     1      48.320  56.408  19.835  1.00  0.00    +0.021 C 
BRANCH   6   7
ATOM      7  C   UNL     1      48.688  57.824  20.279  1.00  0.00    -0.002 C 
ATOM      8  C   UNL     1      49.004  57.932  21.762  1.00  0.00    +0.004 C 
ENDBRANCH   6   7
ENDBRANCH   5   6
ENDBRANCH   1   5
BRANCH   2   9
ATOM      9  C   UNL     1      50.029  52.574  18.099  1.00  0.00    +0.205 C 
BRANCH   9  10
ATOM     10  C   UNL     1      49.543  51.200  17.638  1.00  0.00    -0.016 A 
ATOM     11  C   UNL     1      49.945  50.729  16.376  1.00  0.00    +0.010 A 
ATOM     12  C   UNL     1      48.741  50.368  18.438  1.00  0.00    +0.010 A 
ATOM     13  C   UNL     1      49.541  49.473  15.920  1.00  0.00    +0.046 A 
ATOM     14  C   UNL     1      48.336  49.110  17.982  1.00  0.00    +0.046 A 
ATOM     15  C   UNL     1      48.740  48.675  16.726  1.00  0.00    +0.115 A 
BRANCH  15  16
ATOM     16  O   UNL     1      48.371  47.454  16.243  1.00  0.00    -0.508 OA
ATOM     17  H   UNL     1      48.487  47.453  15.278  1.00  0.00    +0.293 HD
ENDBRANCH  15  16
ENDBRANCH   9  10
BRANCH   9  18
ATOM     18  N   UNL     1      50.764  52.557  19.388  1.00  0.00    -0.317 N 
BRANCH  18  19
ATOM     19  C   UNL     1      50.143  53.131  20.590  1.00  0.00    +0.196 C 
BRANCH  19  20
ATOM     20  C   UNL     1      50.941  54.221  21.202  1.00  0.00    +0.123 A 
ATOM     21  C   UNL     1      51.306  54.515  22.501  1.00  0.00    +0.048 A 
ATOM     22  O   UNL     1      51.390  55.200  20.367  1.00  0.00    -0.464 OA
ATOM     23  C   UNL     1      52.064  55.709  22.445  1.00  0.00    +0.045 A 
ATOM     24  C   UNL     1      52.101  56.081  21.120  1.00  0.00    +0.101 A 
ATOM     25  C   UNL     1      52.732  57.201  20.397  1.00  0.00    +0.087 C 
ENDBRANCH  19  20
ENDBRANCH  18  19
BRANCH  18  26
ATOM     26  C   UNL     1      52.068  52.070  19.331  1.00  0.00    +0.246 C 
ATOM     27  O   UNL     1      52.842  52.430  18.438  1.00  0.00    -0.272 OA
BRANCH  26  28
ATOM     28  C   UNL     1      52.567  51.116  20.442  1.00  0.00    +0.172 C 
ATOM     29  C   UNL     1      53.062  49.801  19.854  1.00  0.00    +0.045 C 
ATOM     30  N   UNL     1      51.497  50.687  21.313  1.00  0.00    -0.344 N 
ATOM     31  C   UNL     1      51.820  48.913  19.815  1.00  0.00    +0.102 C 
ATOM     32  C   UNL     1      50.954  49.486  20.906  1.00  0.00    +0.220 C 
ATOM     33  O   UNL     1      49.929  48.997  21.349  1.00  0.00    -0.275 OA
ATOM     34  H   UNL     1      50.894  51.317  21.828  1.00  0.00    +0.164 HD
ENDBRANCH  26  28
ENDBRANCH  18  26
ENDBRANCH   9  18
ENDBRANCH   2   9
TORSDOF 11
ENDMDL
MODEL 3
REMARK VINA RESULT:    -7.583      1.440      5.517
REMARK INTER + INTRA:         -14.157
REMARK INTER:                 -13.310
REMARK INTRA:                  -0.847
REMARK UNBOUND:                -1.919
REMARK SMILES CCCCNC(=O)[C@H](c1ccc(O)cc1)N(Cc1ccc(C)o1)C(=O)[C@@H]1CCC(=O)N1
REMARK SMILES IDX 5 1 6 2 7 3 4 5 3 6 2 7 1 8 8 9 9 10 10 11 15 12 11 13 14 14
REMARK SMILES IDX 12 15 13 16 16 18 17 19 18 20 19 21 23 22 20 23 21 24 22 25
REMARK SMILES IDX 24 26 25 27 26 28 27 29 31 30 28 31 29 32 30 33
REMARK H PARENT 5 4 13 17 31 34
ROOT
ATOM      1  N   UNL     1      47.902  52.517  17.883  1.00  0.00    -0.354 N 
ATOM      2  C   UNL     1      48.482  53.737  17.564  1.00  0.00    +0.247 C 
ATOM      3  O   UNL     1      48.622  54.100  16.395  1.00  0.00    -0.272 OA
ATOM      4  H   UNL     1      48.070  52.150  18.813  1.00  0.00    +0.163 HD
ENDROOT
BRANCH   1   5
ATOM      5  C   UNL     1      47.519  51.583  16.844  1.00  0.00    +0.116 C 
BRANCH   5   6
ATOM      6  C   UNL     1      47.532  50.149  17.366  1.00  0.00    +0.021 C 
BRANCH   6   7
ATOM      7  C   UNL     1      46.137  49.538  17.496  1.00  0.00    -0.002 C 
ATOM      8  C   UNL     1      45.668  48.822  16.240  1.00  0.00    +0.004 C 
ENDBRANCH   6   7
ENDBRANCH   5   6
ENDBRANCH   1   5
BRANCH   2   9
ATOM      9  C   UNL     1      49.025  54.544  18.788  1.00  0.00    +0.205 C 
BRANCH   9  10
ATOM     10  C   UNL     1      48.452  55.950  18.963  1.00  0.00    -0.016 A 
ATOM     11  C   UNL     1      48.091  56.379  20.252  1.00  0.00    +0.010 A 
ATOM     12  C   UNL     1      48.303  56.851  17.893  1.00  0.00    +0.010 A 
ATOM     13  C   UNL     1      47.580  57.660  20.462  1.00  0.00    +0.046 A 
ATOM     14  C   UNL     1      47.792  58.135  18.104  1.00  0.00    +0.046 A 
ATOM     15  C   UNL     1      47.434  58.527  19.388  1.00  0.00    +0.115 A 
BRANCH  15  16
ATOM     16  O   UNL     1      46.935  59.771  19.638  1.00  0.00    -0.508 OA
ATOM     17  H   UNL     1      47.182  60.359  18.905  1.00  0.00    +0.293 HD
ENDBRANCH  15  16
ENDBRANCH   9  10
BRANCH   9  18
ATOM     18  N   UNL     1      50.504  54.476  18.875  1.00  0.00    -0.317 N 
BRANCH  18  19
ATOM     19  C   UNL     1      51.290  55.716  18.939  1.00  0.00    +0.196 C 
BRANCH  19  20
ATOM     20  C   UNL     1      51.700  56.081  20.317  1.00  0.00    +0.123 A 
ATOM     21  C   UNL     1      51.312  55.647  21.568  1.00  0.00    +0.048 A 
ATOM     22  O   UNL     1      52.606  57.092  20.442  1.00  0.00    -0.464 OA
ATOM     23  C   UNL     1      52.064  56.396  22.505  1.00  0.00    +0.045 A 
ATOM     24  C   UNL     1      52.850  57.255  21.770  1.00  0.00    +0.101 A 
ATOM     25  C   UNL     1      53.857  58.271  22.131  1.00  0.00    +0.087 C 
ENDBRANCH  19  20
ENDBRANCH  18  19
BRANCH  18  26
ATOM     26  C   UNL     1      51.053  53.198  18.787  1.00  0.00    +0.246 C 
ATOM     27  O   UNL     1      52.022  52.971  18.055  1.00  0.00    -0.272 OA
BRANCH  26  28
ATOM     28  C   UNL     1      50.479  52.068  19.673  1.00  0.00    +0.172 C 
ATOM     29  C   UNL     1      50.769  52.324  21.146  1.00  0.00    +0.045 C 
ATOM     30  N   UNL     1      51.139  50.804  19.438  1.00  0.00    -0.344 N 
ATOM     31  C   UNL     1      52.124  51.660  21.385  1.00  0.00    +0.102 C 
ATOM     32  C   UNL     1      52.177  50.595  20.323  1.00  0.00    +0.220 C 
ATOM     33  O   UNL     1      53.005  49.706  20.229  1.00  0.00    -0.275 OA
ATOM     34  H   UNL     1      51.202  50.354  18.533  1.00  0.00    +0.164 HD
ENDBRANCH  26  28
ENDBRANCH  18  26
ENDBRANCH   9  18
ENDBRANCH   2   9
TORSDOF 11
ENDMDL
MODEL 4
REMARK VINA RESULT:    -7.524      1.739      6.496
REMARK INTER + INTRA:         -14.062
REMARK INTER:                 -12.310
REMARK INTRA:                  -1.752
REMARK UNBOUND:                -1.919
REMARK SMILES CCCCNC(=O)[C@H](c1ccc(O)cc1)N(Cc1ccc(C)o1)C(=O)[C@@H]1CCC(=O)N1
REMARK SMILES IDX 5 1 6 2 7 3 4 5 3 6 2 7 1 8 8 9 9 10 10 11 15 12 11 13 14 14
REMARK SMILES IDX 12 15 13 16 16 18 17 19 18 20 19 21 23 22 20 23 21 24 22 25
REMARK SMILES IDX 24 26 25 27 26 28 27 29 31 30 28 31 29 32 30 33
REMARK H PARENT 5 4 13 17 31 34
ROOT
ATOM      1  N   UNL     1      48.901  56.389  18.684  1.00  0.00    -0.354 N 
ATOM      2  C   UNL     1      48.633  55.226  19.392  1.00  0.00    +0.247 C 
ATOM      3  O   UNL     1      47.482  54.892  19.675  1.00  0.00    -0.272 OA
ATOM      4  H   UNL     1      49.846  56.755  18.729  1.00  0.00    +0.163 HD
ENDROOT
BRANCH   1   5
ATOM      5  C   UNL     1      47.836  57.303  18.327  1.00  0.00    +0.116 C 
BRANCH   5   6
ATOM      6  C   UNL     1      47.852  58.538  19.222  1.00  0.00    +0.021 C 
BRANCH   6   7
ATOM      7  C   UNL     1      47.489  58.239  20.677  1.00  0.00    -0.002 C 
ATOM      8  C   UNL     1      48.686  58.241  21.614  1.00  0.00    +0.004 C 
ENDBRANCH   6   7
ENDBRANCH   5   6
ENDBRANCH   1   5
BRANCH   2   9
ATOM      9  C   UNL     1      49.900  54.449  19.878  1.00  0.00    +0.205 C 
BRANCH   9  10
ATOM     10  C   UNL     1      51.006  55.302  20.499  1.00  0.00    -0.016 A 
ATOM     11  C   UNL     1      51.108  55.361  21.900  1.00  0.00    +0.010 A 
ATOM     12  C   UNL     1      51.950  56.002  19.729  1.00  0.00    +0.010 A 
ATOM     13  C   UNL     1      52.113  56.112  22.512  1.00  0.00    +0.046 A 
ATOM     14  C   UNL     1      52.957  56.754  20.341  1.00  0.00    +0.046 A 
ATOM     15  C   UNL     1      53.027  56.803  21.728  1.00  0.00    +0.115 A 
BRANCH  15  16
ATOM     16  O   UNL     1      53.994  57.522  22.367  1.00  0.00    -0.508 OA
ATOM     17  H   UNL     1      54.854  57.101  22.202  1.00  0.00    +0.293 HD
ENDBRANCH  15  16
ENDBRANCH   9  10
BRANCH   9  18
ATOM     18  N   UNL     1      50.377  53.488  18.853  1.00  0.00    -0.317 N 
BRANCH  18  19
ATOM     19  C   UNL     1      49.595  53.280  17.626  1.00  0.00    +0.196 C 
BRANCH  19  20
ATOM     20  C   UNL     1      49.309  51.852  17.345  1.00  0.00    +0.123 A 
ATOM     21  C   UNL     1      49.954  50.885  16.601  1.00  0.00    +0.048 A 
ATOM     22  O   UNL     1      48.151  51.345  17.852  1.00  0.00    -0.464 OA
ATOM     23  C   UNL     1      49.174  49.709  16.707  1.00  0.00    +0.045 A 
ATOM     24  C   UNL     1      48.090  50.034  17.493  1.00  0.00    +0.101 A 
ATOM     25  C   UNL     1      46.933  49.270  17.994  1.00  0.00    +0.087 C 
ENDBRANCH  19  20
ENDBRANCH  18  19
BRANCH  18  26
ATOM     26  C   UNL     1      51.517  52.763  19.193  1.00  0.00    +0.246 C 
ATOM     27  O   UNL     1      52.540  52.826  18.503  1.00  0.00    -0.272 OA
BRANCH  26  28
ATOM     28  C   UNL     1      51.518  51.921  20.490  1.00  0.00    +0.172 C 
ATOM     29  C   UNL     1      52.798  51.104  20.614  1.00  0.00    +0.045 C 
ATOM     30  N   UNL     1      50.495  50.900  20.478  1.00  0.00    -0.344 N 
ATOM     31  C   UNL     1      52.478  49.790  19.903  1.00  0.00    +0.102 C 
ATOM     32  C   UNL     1      50.980  49.693  20.020  1.00  0.00    +0.220 C 
ATOM     33  O   UNL     1      50.293  48.727  19.738  1.00  0.00    -0.275 OA
ATOM     34  H   UNL     1      49.508  51.085  20.345  1.00  0.00    +0.164 HD
ENDBRANCH  26  28
ENDBRANCH  18  26
ENDBRANCH   9  18
ENDBRANCH   2   9
TORSDOF 11
ENDMDL
MODEL 5
REMARK VINA RESULT:    -7.295      1.529      5.801
REMARK INTER + INTRA:         -13.693
REMARK INTER:                 -12.914
REMARK INTRA:                  -0.778
REMARK UNBOUND:                -1.919
REMARK SMILES CCCCNC(=O)[C@H](c1ccc(O)cc1)N(Cc1ccc(C)o1)C(=O)[C@@H]1CCC(=O)N1
REMARK SMILES IDX 5 1 6 2 7 3 4 5 3 6 2 7 1 8 8 9 9 10 10 11 15 12 11 13 14 14
REMARK SMILES IDX 12 15 13 16 16 18 17 19 18 20 19 21 23 22 20 23 21 24 22 25
REMARK SMILES IDX 24 26 25 27 26 28 27 29 31 30 28 31 29 32 30 33
REMARK H PARENT 5 4 13 17 31 34
ROOT
ATOM      1  N   UNL     1      51.678  55.275  22.025  1.00  0.00    -0.354 N 
ATOM      2  C   UNL     1      51.744  54.699  20.764  1.00  0.00    +0.247 C 
ATOM      3  O   UNL     1      52.542  55.096  19.914  1.00  0.00    -0.272 OA
ATOM      4  H   UNL     1      50.837  55.112  22.568  1.00  0.00    +0.163 HD
ENDROOT
BRANCH   1   5
ATOM      5  C   UNL     1      52.489  56.428  22.359  1.00  0.00    +0.116 C 
BRANCH   5   6
ATOM      6  C   UNL     1      51.884  57.706  21.785  1.00  0.00    +0.021 C 
BRANCH   6   7
ATOM      7  C   UNL     1      52.911  58.611  21.105  1.00  0.00    -0.002 C 
ATOM      8  C   UNL     1      54.264  57.948  20.900  1.00  0.00    +0.004 C 
ENDBRANCH   6   7
ENDBRANCH   5   6
ENDBRANCH   1   5
BRANCH   2   9
ATOM      9  C   UNL     1      50.670  53.597  20.490  1.00  0.00    +0.205 C 
BRANCH   9  10
ATOM     10  C   UNL     1      51.198  52.166  20.389  1.00  0.00    -0.016 A 
ATOM     11  C   UNL     1      50.526  51.147  21.087  1.00  0.00    +0.010 A 
ATOM     12  C   UNL     1      52.306  51.817  19.598  1.00  0.00    +0.010 A 
ATOM     13  C   UNL     1      50.961  49.823  21.011  1.00  0.00    +0.046 A 
ATOM     14  C   UNL     1      52.741  50.491  19.521  1.00  0.00    +0.046 A 
ATOM     15  C   UNL     1      52.065  49.505  20.230  1.00  0.00    +0.115 A 
BRANCH  15  16
ATOM     16  O   UNL     1      52.453  48.199  20.181  1.00  0.00    -0.508 OA
ATOM     17  H   UNL     1      53.407  48.152  20.359  1.00  0.00    +0.293 HD
ENDBRANCH  15  16
ENDBRANCH   9  10
BRANCH   9  18
ATOM     18  N   UNL     1      49.757  53.987  19.387  1.00  0.00    -0.317 N 
BRANCH  18  19
ATOM     19  C   UNL     1      49.937  53.406  18.050  1.00  0.00    +0.196 C 
BRANCH  19  20
ATOM     20  C   UNL     1      48.906  52.398  17.702  1.00  0.00    +0.123 A 
ATOM     21  C   UNL     1      47.658  52.482  17.117  1.00  0.00    +0.048 A 
ATOM     22  O   UNL     1      49.160  51.109  18.060  1.00  0.00    -0.464 OA
ATOM     23  C   UNL     1      47.149  51.162  17.067  1.00  0.00    +0.045 A 
ATOM     24  C   UNL     1      48.107  50.356  17.641  1.00  0.00    +0.101 A 
ATOM     25  C   UNL     1      48.203  48.904  17.878  1.00  0.00    +0.087 C 
ENDBRANCH  19  20
ENDBRANCH  18  19
BRANCH  18  26
ATOM     26  C   UNL     1      48.830  54.980  19.698  1.00  0.00    +0.246 C 
ATOM     27  O   UNL     1      47.653  54.696  19.947  1.00  0.00    -0.272 OA
BRANCH  26  28
ATOM     28  C   UNL     1      49.302  56.449  19.795  1.00  0.00    +0.172 C 
ATOM     29  C   UNL     1      48.598  57.178  20.933  1.00  0.00    +0.045 C 
ATOM     30  N   UNL     1      48.913  57.224  18.639  1.00  0.00    -0.344 N 
ATOM     31  C   UNL     1      47.336  57.751  20.291  1.00  0.00    +0.102 C 
ATOM     32  C   UNL     1      47.718  57.883  18.840  1.00  0.00    +0.220 C 
ATOM     33  O   UNL     1      47.078  58.449  17.972  1.00  0.00    -0.275 OA
ATOM     34  H   UNL     1      49.156  56.985  17.685  1.00  0.00    +0.164 HD
ENDBRANCH  26  28
ENDBRANCH  18  26
ENDBRANCH   9  18
ENDBRANCH   2   9
TORSDOF 11
ENDMDL
