MODEL 1
REMARK VINA RESULT:    -6.327      0.000      0.000
REMARK INTER + INTRA:          -8.375
REMARK INTER:                  -7.991
REMARK INTRA:                  -0.384
REMARK UNBOUND:                -0.384
REMARK SMILES [NH3+]C1CCN(CC(=O)NC[C@@H]2CCCO2)CC1
REMARK SMILES IDX 6 1 7 2 9 3 8 4 10 6 11 7 13 8 12 9 14 10 15 11 5 12 4 13
REMARK SMILES IDX 16 14 3 15 17 16 2 17 1 18
REMARK H PARENT 9 5 1 19 1 20 1 21
ROOT
ATOM      1  C   UNL     1      52.112  53.547  20.170  1.00  0.00    +0.184 C 
ENDROOT
BRANCH   1   2
ATOM      2  C   UNL     1      51.624  54.487  21.275  1.00  0.00    +0.234 C 
ATOM      3  N   UNL     1      50.728  55.437  20.836  1.00  0.00    -0.352 N 
ATOM      4  O   UNL     1      52.022  54.388  22.433  1.00  0.00    -0.274 OA
ATOM      5  H   UNL     1      50.765  55.634  19.839  1.00  0.00    +0.163 HD
BRANCH   3   6
ATOM      6  C   UNL     1      50.311  56.532  21.695  1.00  0.00    +0.147 C 
BRANCH   6   7
ATOM      7  C   UNL     1      49.825  57.742  20.876  1.00  0.00    +0.137 C 
ATOM      8  C   UNL     1      47.492  57.468  20.641  1.00  0.00    +0.031 C 
ATOM      9  C   UNL     1      48.507  58.304  21.378  1.00  0.00    +0.036 C 
ATOM     10  C   UNL     1      48.161  57.253  19.300  1.00  0.00    +0.160 C 
ATOM     11  O   UNL     1      49.580  57.315  19.516  1.00  0.00    -0.376 OA
ENDBRANCH   6   7
ENDBRANCH   3   6
ENDBRANCH   1   2
BRANCH   1  12
ATOM     12  N   UNL     1      51.022  52.658  19.691  1.00  0.00    -0.294 NA
ATOM     13  C   UNL     1      50.593  51.712  20.724  1.00  0.00    +0.091 C 
ATOM     14  C   UNL     1      51.318  51.984  18.417  1.00  0.00    +0.091 C 
ATOM     15  C   UNL     1      51.597  50.578  20.955  1.00  0.00    +0.080 C 
ATOM     16  C   UNL     1      52.358  50.871  18.556  1.00  0.00    +0.080 C 
ATOM     17  C   UNL     1      51.928  49.886  19.635  1.00  0.00    +0.183 C 
BRANCH  17  18
ATOM     18  N   UNL     1      53.031  48.905  19.859  1.00  0.00    -0.355 N 
ATOM     19  H   UNL     1      52.693  48.065  20.352  1.00  0.00    +0.344 HD
ATOM     20  H   UNL     1      53.452  48.589  18.974  1.00  0.00    +0.344 HD
ATOM     21  H   UNL     1      53.785  49.309  20.433  1.00  0.00    +0.344 HD
ENDBRANCH  17  18
ENDBRANCH   1  12
TORSDOF 5
ENDMDL
MODEL 2
REMARK VINA RESULT:    -6.200      1.729      2.808
REMARK INTER + INTRA:          -8.216
REMARK INTER:                  -7.825
REMARK INTRA:                  -0.391
REMARK UNBOUND:                -0.384
REMARK SMILES [NH3+]C1CCN(CC(=O)NC[C@@H]2CCCO2)CC1
REMARK SMILES IDX 6 1 7 2 9 3 8 4 10 6 11 7 13 8 12 9 14 10 15 11 5 12 4 13
REMARK SMILES IDX 16 14 3 15 17 16 2 17 1 18
REMARK H PARENT 9 5 1 19 1 20 1 21
ROOT
ATOM      1  C   UNL     1      50.016  52.351  18.228  1.00  0.00    +0.184 C 
ENDROOT
BRANCH   1   2
ATOM      2  C   UNL     1      49.064  53.545  18.118  1.00  0.00    +0.234 C 
ATOM      3  N   UNL     1      49.633  54.741  18.502  1.00  0.00    -0.352 N 
ATOM      4  O   UNL     1      47.905  53.418  17.736  1.00  0.00    -0.274 OA
ATOM      5  H   UNL     1      50.438  54.656  19.116  1.00  0.00    +0.163 HD
BRANCH   3   6
ATOM      6  C   UNL     1      48.829  55.941  18.653  1.00  0.00    +0.147 C 
BRANCH   6   7
ATOM      7  C   UNL     1      48.251  56.060  20.076  1.00  0.00    +0.137 C 
ATOM      8  C   UNL     1      48.537  58.319  20.702  1.00  0.00    +0.031 C 
ATOM      9  C   UNL     1      47.465  57.342  20.289  1.00  0.00    +0.036 C 
ATOM     10  C   UNL     1      49.471  57.449  21.516  1.00  0.00    +0.160 C 
ATOM     11  O   UNL     1      49.346  56.106  21.020  1.00  0.00    -0.376 OA
ENDBRANCH   6   7
ENDBRANCH   3   6
ENDBRANCH   1   2
BRANCH   1  12
ATOM     12  N   UNL     1      51.172  52.656  19.110  1.00  0.00    -0.294 NA
ATOM     13  C   UNL     1      52.441  52.220  18.522  1.00  0.00    +0.091 C 
ATOM     14  C   UNL     1      51.012  52.175  20.491  1.00  0.00    +0.091 C 
ATOM     15  C   UNL     1      52.634  50.701  18.570  1.00  0.00    +0.080 C 
ATOM     16  C   UNL     1      51.138  50.655  20.614  1.00  0.00    +0.080 C 
ATOM     17  C   UNL     1      52.449  50.189  19.996  1.00  0.00    +0.183 C 
BRANCH  17  18
ATOM     18  N   UNL     1      52.472  48.695  19.987  1.00  0.00    -0.355 N 
ATOM     19  H   UNL     1      52.319  48.311  20.931  1.00  0.00    +0.344 HD
ATOM     20  H   UNL     1      51.741  48.302  19.376  1.00  0.00    +0.344 HD
ATOM     21  H   UNL     1      53.378  48.334  19.656  1.00  0.00    +0.344 HD
ENDBRANCH  17  18
ENDBRANCH   1  12
TORSDOF 5
ENDMDL
MODEL 3
REMARK VINA RESULT:    -6.163      4.654      6.939
REMARK INTER + INTRA:          -8.168
REMARK INTER:                  -7.687
REMARK INTRA:                  -0.481
REMARK UNBOUND:                -0.384
REMARK SMILES [NH3+]C1CCN(CC(=O)NC[C@@H]2CCCO2)CC1
REMARK SMILES IDX 6 1 7 2 9 3 8 4 10 6 11 7 13 8 12 9 14 10 15 11 5 12 4 13
REMARK SMILES IDX 16 14 3 15 17 16 2 17 1 18
REMARK H PARENT 9 5 1 19 1 20 1 21
ROOT
ATOM      1  C   UNL     1      48.408  50.131  16.871  1.00  0.00    +0.184 C 
ENDROOT
BRANCH   1   2
ATOM      2  C   UNL     1      49.567  51.057  17.249  1.00  0.00    +0.234 C 
ATOM      3  N   UNL     1      50.755  50.393  17.470  1.00  0.00    -0.352 N 
ATOM      4  O   UNL     1      49.419  52.271  17.353  1.00  0.00    -0.274 OA
ATOM      5  H   UNL     1      50.659  49.408  17.702  1.00  0.00    +0.163 HD
BRANCH   3   6
ATOM      6  C   UNL     1      51.906  51.079  18.028  1.00  0.00    +0.147 C 
BRANCH   6   7
ATOM      7  C   UNL     1      52.501  50.309  19.222  1.00  0.00    +0.137 C 
ATOM      8  C   UNL     1      50.929  50.517  20.972  1.00  0.00    +0.031 C 
ATOM      9  C   UNL     1      51.461  49.508  19.985  1.00  0.00    +0.036 C 
ATOM     10  C   UNL     1      52.165  51.324  21.307  1.00  0.00    +0.160 C 
ATOM     11  O   UNL     1      53.039  51.262  20.168  1.00  0.00    -0.376 OA
ENDBRANCH   6   7
ENDBRANCH   3   6
ENDBRANCH   1   2
BRANCH   1  12
ATOM     12  N   UNL     1      48.583  48.775  17.454  1.00  0.00    -0.294 NA
ATOM     13  C   UNL     1      48.305  47.718  16.478  1.00  0.00    +0.091 C 
ATOM     14  C   UNL     1      47.850  48.567  18.712  1.00  0.00    +0.091 C 
ATOM     15  C   UNL     1      46.811  47.547  16.187  1.00  0.00    +0.080 C 
ATOM     16  C   UNL     1      46.339  48.440  18.511  1.00  0.00    +0.080 C 
ATOM     17  C   UNL     1      46.038  47.352  17.490  1.00  0.00    +0.183 C 
BRANCH  17  18
ATOM     18  N   UNL     1      44.574  47.359  17.196  1.00  0.00    -0.355 N 
ATOM     19  H   UNL     1      44.167  48.296  17.334  1.00  0.00    +0.344 HD
ATOM     20  H   UNL     1      44.374  47.081  16.224  1.00  0.00    +0.344 HD
ATOM     21  H   UNL     1      44.062  46.713  17.813  1.00  0.00    +0.344 HD
ENDBRANCH  17  18
ENDBRANCH   1  12
TORSDOF 5
ENDMDL
MODEL 4
REMARK VINA RESULT:    -6.055      5.277      7.222
REMARK INTER + INTRA:          -8.032
REMARK INTER:                  -7.665
REMARK INTRA:                  -0.368
REMARK UNBOUND:                -0.384
REMARK SMILES [NH3+]C1CCN(CC(=O)NC[C@@H]2CCCO2)CC1
REMARK SMILES IDX 6 1 7 2 9 3 8 4 10 6 11 7 13 8 12 9 14 10 15 11 5 12 4 13
REMARK SMILES IDX 16 14 3 15 17 16 2 17 1 18
REMARK H PARENT 9 5 1 19 1 20 1 21
ROOT
ATOM      1  C   UNL     1      50.061  50.196  18.798  1.00  0.00    +0.184 C 
ENDROOT
BRANCH   1   2
ATOM      2  C   UNL     1      49.351  49.792  17.504  1.00  0.00    +0.234 C 
ATOM      3  N   UNL     1      48.290  48.936  17.700  1.00  0.00    -0.352 N 
ATOM      4  O   UNL     1      49.724  50.197  16.406  1.00  0.00    -0.274 OA
ATOM      5  H   UNL     1      48.316  48.412  18.572  1.00  0.00    +0.163 HD
BRANCH   3   6
ATOM      6  C   UNL     1      47.625  48.292  16.581  1.00  0.00    +0.147 C 
BRANCH   6   7
ATOM      7  C   UNL     1      46.266  48.948  16.276  1.00  0.00    +0.137 C 
ATOM      8  C   UNL     1      44.752  48.061  17.857  1.00  0.00    +0.031 C 
ATOM      9  C   UNL     1      45.499  49.329  17.530  1.00  0.00    +0.036 C 
ATOM     10  C   UNL     1      44.421  47.518  16.483  1.00  0.00    +0.160 C 
ATOM     11  O   UNL     1      45.434  47.990  15.580  1.00  0.00    -0.376 OA
ENDBRANCH   6   7
ENDBRANCH   3   6
ENDBRANCH   1   2
BRANCH   1  12
ATOM     12  N   UNL     1      51.160  51.163  18.537  1.00  0.00    -0.294 NA
ATOM     13  C   UNL     1      52.386  50.805  19.254  1.00  0.00    +0.091 C 
ATOM     14  C   UNL     1      50.783  52.568  18.759  1.00  0.00    +0.091 C 
ATOM     15  C   UNL     1      52.309  51.093  20.757  1.00  0.00    +0.080 C 
ATOM     16  C   UNL     1      50.632  52.921  20.239  1.00  0.00    +0.080 C 
ATOM     17  C   UNL     1      51.898  52.544  20.997  1.00  0.00    +0.183 C 
BRANCH  17  18
ATOM     18  N   UNL     1      51.665  52.751  22.458  1.00  0.00    -0.355 N 
ATOM     19  H   UNL     1      52.463  53.227  22.903  1.00  0.00    +0.344 HD
ATOM     20  H   UNL     1      50.829  53.327  22.637  1.00  0.00    +0.344 HD
ATOM     21  H   UNL     1      51.534  51.856  22.950  1.00  0.00    +0.344 HD
ENDBRANCH  17  18
ENDBRANCH   1  12
TORSDOF 5
ENDMDL
MODEL 5
REMARK VINA RESULT:    -5.987      3.296      6.425
REMARK INTER + INTRA:          -7.947
REMARK INTER:                  -7.580
REMARK INTRA:                  -0.366
REMARK UNBOUND:                -0.384
REMARK SMILES [NH3+]C1CCN(CC(=O)NC[C@@H]2CCCO2)CC1
REMARK SMILES IDX 6 1 7 2 9 3 8 4 10 6 11 7 13 8 12 9 14 10 15 11 5 12 4 13
REMARK SMILES IDX 16 14 3 15 17 16 2 17 1 18
REMARK H PARENT 9 5 1 19 1 20 1 21
ROOT
ATOM      1  C   UNL     1      52.356  53.693  19.860  1.00  0.00    +0.184 C 
ENDROOT
BRANCH   1   2
ATOM      2  C   UNL     1      52.290  52.750  18.656  1.00  0.00    +0.234 C 
ATOM      3  N   UNL     1      51.156  51.966  18.630  1.00  0.00    -0.352 N 
ATOM      4  O   UNL     1      53.184  52.706  17.816  1.00  0.00    -0.274 OA
ATOM      5  H   UNL     1      50.700  51.841  19.531  1.00  0.00    +0.163 HD
BRANCH   3   6
ATOM      6  C   UNL     1      51.015  50.878  17.679  1.00  0.00    +0.147 C 
BRANCH   6   7
ATOM      7  C   UNL     1      49.686  50.969  16.906  1.00  0.00    +0.137 C 
ATOM      8  C   UNL     1      48.200  49.498  18.003  1.00  0.00    +0.031 C 
ATOM      9  C   UNL     1      48.472  50.969  17.818  1.00  0.00    +0.036 C 
ATOM     10  C   UNL     1      48.563  48.929  16.647  1.00  0.00    +0.160 C 
ATOM     11  O   UNL     1      49.553  49.796  16.070  1.00  0.00    -0.376 OA
ENDBRANCH   6   7
ENDBRANCH   3   6
ENDBRANCH   1   2
BRANCH   1  12
ATOM     12  N   UNL     1      51.289  54.726  19.801  1.00  0.00    -0.294 NA
ATOM     13  C   UNL     1      51.772  55.979  19.215  1.00  0.00    +0.091 C 
ATOM     14  C   UNL     1      50.602  54.948  21.082  1.00  0.00    +0.091 C 
ATOM     15  C   UNL     1      52.676  56.776  20.161  1.00  0.00    +0.080 C 
ATOM     16  C   UNL     1      51.463  55.692  22.104  1.00  0.00    +0.080 C 
ATOM     17  C   UNL     1      51.979  56.992  21.502  1.00  0.00    +0.183 C 
BRANCH  17  18
ATOM     18  N   UNL     1      52.941  57.617  22.458  1.00  0.00    -0.355 N 
ATOM     19  H   UNL     1      52.516  58.415  22.953  1.00  0.00    +0.344 HD
ATOM     20  H   UNL     1      53.260  56.950  23.176  1.00  0.00    +0.344 HD
ATOM     21  H   UNL     1      53.778  57.972  21.974  1.00  0.00    +0.344 HD
ENDBRANCH  17  18
ENDBRANCH   1  12
TORSDOF 5
ENDMDL
