MODEL 1
REMARK VINA RESULT:    -5.753      0.000      0.000
REMARK INTER + INTRA:          -8.090
REMARK INTER:                  -7.434
REMARK INTRA:                  -0.655
REMARK UNBOUND:                -0.655
REMARK SMILES CC[C@H](C)N(CC)c1n[nH]c(=S)n1CC
REMARK SMILES IDX 5 1 3 2 4 3 2 4 1 5 6 6 7 7 8 8 9 9 13 10 10 11 11 12 12 13
REMARK SMILES IDX 14 15 15 16
REMARK H PARENT 10 14
ROOT
ATOM      1  N   UNL     1      51.089  55.900  21.086  1.00  0.00    -0.339 N 
ENDROOT
BRANCH   1   2
ATOM      2  C   UNL     1      49.708  56.403  21.369  1.00  0.00    +0.081 C 
ATOM      3  C   UNL     1      49.816  57.855  21.854  1.00  0.00    +0.031 C 
BRANCH   2   4
ATOM      4  C   UNL     1      48.738  56.282  20.173  1.00  0.00    +0.021 C 
ATOM      5  C   UNL     1      47.601  57.296  20.207  1.00  0.00    +0.006 C 
ENDBRANCH   2   4
ENDBRANCH   1   2
BRANCH   1   6
ATOM      6  C   UNL     1      52.119  56.897  21.472  1.00  0.00    +0.116 C 
ATOM      7  C   UNL     1      53.212  56.990  20.417  1.00  0.00    +0.027 C 
ENDBRANCH   1   6
BRANCH   1   8
ATOM      8  C   UNL     1      51.398  54.590  21.411  1.00  0.00    +0.225 C 
ATOM      9  N   UNL     1      51.583  54.148  22.629  1.00  0.00    -0.136 NA
ATOM     10  N   UNL     1      51.555  53.625  20.457  1.00  0.00    -0.287 N 
ATOM     11  N   UNL     1      51.864  52.824  22.482  1.00  0.00    -0.250 N 
ATOM     12  C   UNL     1      51.868  52.479  21.143  1.00  0.00    +0.196 C 
ATOM     13  S   UNL     1      52.203  50.954  20.587  1.00  0.00    -0.039 S 
ATOM     14  H   UNL     1      52.070  52.222  23.269  1.00  0.00    +0.193 HD
BRANCH  10  15
ATOM     15  C   UNL     1      51.553  53.814  19.012  1.00  0.00    +0.125 C 
ATOM     16  C   UNL     1      50.246  53.363  18.380  1.00  0.00    +0.028 C 
ENDBRANCH  10  15
ENDBRANCH   1   8
TORSDOF 5
ENDMDL
MODEL 2
REMARK VINA RESULT:    -5.365      4.904      7.514
REMARK INTER + INTRA:          -7.588
REMARK INTER:                  -6.921
REMARK INTRA:                  -0.667
REMARK UNBOUND:                -0.655
REMARK SMILES CC[C@H](C)N(CC)c1n[nH]c(=S)n1CC
REMARK SMILES IDX 5 1 3 2 4 3 2 4 1 5 6 6 7 7 8 8 9 9 13 10 10 11 11 12 12 13
REMARK SMILES IDX 14 15 15 16
REMARK H PARENT 10 14
ROOT
ATOM      1  N   UNL     1      48.993  49.725  16.089  1.00  0.00    -0.339 N 
ENDROOT
BRANCH   1   2
ATOM      2  C   UNL     1      47.911  48.771  16.490  1.00  0.00    +0.081 C 
ATOM      3  C   UNL     1      48.567  47.443  16.890  1.00  0.00    +0.031 C 
BRANCH   2   4
ATOM      4  C   UNL     1      46.991  49.302  17.612  1.00  0.00    +0.021 C 
ATOM      5  C   UNL     1      46.773  48.303  18.743  1.00  0.00    +0.006 C 
ENDBRANCH   2   4
ENDBRANCH   1   2
BRANCH   1   6
ATOM      6  C   UNL     1      49.263  49.655  14.631  1.00  0.00    +0.116 C 
ATOM      7  C   UNL     1      50.759  49.665  14.350  1.00  0.00    +0.027 C 
ENDBRANCH   1   6
BRANCH   1   8
ATOM      8  C   UNL     1      48.979  51.005  16.616  1.00  0.00    +0.225 C 
ATOM      9  N   UNL     1      48.259  51.995  16.153  1.00  0.00    -0.136 NA
ATOM     10  N   UNL     1      49.751  51.355  17.688  1.00  0.00    -0.287 N 
ATOM     11  N   UNL     1      48.554  53.051  16.960  1.00  0.00    -0.250 N 
ATOM     12  C   UNL     1      49.489  52.683  17.910  1.00  0.00    +0.196 C 
ATOM     13  S   UNL     1      50.107  53.723  19.043  1.00  0.00    -0.039 S 
ATOM     14  H   UNL     1      48.150  53.968  16.824  1.00  0.00    +0.193 HD
BRANCH  10  15
ATOM     15  C   UNL     1      50.759  50.534  18.345  1.00  0.00    +0.125 C 
ATOM     16  C   UNL     1      50.181  49.749  19.513  1.00  0.00    +0.028 C 
ENDBRANCH  10  15
ENDBRANCH   1   8
TORSDOF 5
ENDMDL
MODEL 3
REMARK VINA RESULT:    -5.123      1.810      2.517
REMARK INTER + INTRA:          -7.276
REMARK INTER:                  -6.738
REMARK INTRA:                  -0.537
REMARK UNBOUND:                -0.655
REMARK SMILES CC[C@H](C)N(CC)c1n[nH]c(=S)n1CC
REMARK SMILES IDX 5 1 3 2 4 3 2 4 1 5 6 6 7 7 8 8 9 9 13 10 10 11 11 12 12 13
REMARK SMILES IDX 14 15 15 16
REMARK H PARENT 10 14
ROOT
ATOM      1  N   UNL     1      50.983  53.698  19.987  1.00  0.00    -0.339 N 
ENDROOT
BRANCH   1   2
ATOM      2  C   UNL     1      50.022  54.639  20.643  1.00  0.00    +0.081 C 
ATOM      3  C   UNL     1      50.775  55.931  20.990  1.00  0.00    +0.031 C 
BRANCH   2   4
ATOM      4  C   UNL     1      48.759  54.935  19.804  1.00  0.00    +0.021 C 
ATOM      5  C   UNL     1      48.193  56.332  20.028  1.00  0.00    +0.006 C 
ENDBRANCH   2   4
ENDBRANCH   1   2
BRANCH   1   6
ATOM      6  C   UNL     1      52.247  54.385  19.618  1.00  0.00    +0.116 C 
ATOM      7  C   UNL     1      53.122  53.491  18.750  1.00  0.00    +0.027 C 
ENDBRANCH   1   6
BRANCH   1   8
ATOM      8  C   UNL     1      51.145  52.433  20.523  1.00  0.00    +0.225 C 
ATOM      9  N   UNL     1      51.842  52.161  21.597  1.00  0.00    -0.136 NA
ATOM     10  N   UNL     1      50.584  51.326  19.949  1.00  0.00    -0.287 N 
ATOM     11  N   UNL     1      51.732  50.813  21.755  1.00  0.00    -0.250 N 
ATOM     12  C   UNL     1      50.970  50.271  20.736  1.00  0.00    +0.196 C 
ATOM     13  S   UNL     1      50.652  48.650  20.589  1.00  0.00    -0.039 S 
ATOM     14  H   UNL     1      52.191  50.315  22.506  1.00  0.00    +0.193 HD
BRANCH  10  15
ATOM     15  C   UNL     1      49.871  51.265  18.681  1.00  0.00    +0.125 C 
ATOM     16  C   UNL     1      50.789  50.886  17.529  1.00  0.00    +0.028 C 
ENDBRANCH  10  15
ENDBRANCH   1   8
TORSDOF 5
ENDMDL
MODEL 4
REMARK VINA RESULT:    -4.787      2.897      5.477
REMARK INTER + INTRA:          -6.842
REMARK INTER:                  -6.158
REMARK INTRA:                  -0.684
REMARK UNBOUND:                -0.655
REMARK SMILES CC[C@H](C)N(CC)c1n[nH]c(=S)n1CC
REMARK SMILES IDX 5 1 3 2 4 3 2 4 1 5 6 6 7 7 8 8 9 9 13 10 10 11 11 12 12 13
REMARK SMILES IDX 14 15 15 16
REMARK H PARENT 10 14
ROOT
ATOM      1  N   UNL     1      50.030  51.526  18.415  1.00  0.00    -0.339 N 
ENDROOT
BRANCH   1   2
ATOM      2  C   UNL     1      49.296  51.605  17.113  1.00  0.00    +0.081 C 
ATOM      3  C   UNL     1      49.729  50.417  16.244  1.00  0.00    +0.031 C 
BRANCH   2   4
ATOM      4  C   UNL     1      47.759  51.661  17.261  1.00  0.00    +0.021 C 
ATOM      5  C   UNL     1      47.069  50.340  16.938  1.00  0.00    +0.006 C 
ENDBRANCH   2   4
ENDBRANCH   1   2
BRANCH   1   6
ATOM      6  C   UNL     1      50.385  50.125  18.753  1.00  0.00    +0.116 C 
ATOM      7  C   UNL     1      50.504  49.938  20.258  1.00  0.00    +0.027 C 
ENDBRANCH   1   6
BRANCH   1   8
ATOM      8  C   UNL     1      51.022  52.455  18.676  1.00  0.00    +0.225 C 
ATOM      9  N   UNL     1      52.272  52.337  18.304  1.00  0.00    -0.136 NA
ATOM     10  N   UNL     1      50.774  53.602  19.376  1.00  0.00    -0.287 N 
ATOM     11  N   UNL     1      52.883  53.461  18.768  1.00  0.00    -0.250 N 
ATOM     12  C   UNL     1      51.978  54.254  19.450  1.00  0.00    +0.196 C 
ATOM     13  S   UNL     1      52.379  55.689  20.178  1.00  0.00    -0.039 S 
ATOM     14  H   UNL     1      53.872  53.634  18.639  1.00  0.00    +0.193 HD
BRANCH  10  15
ATOM     15  C   UNL     1      49.532  53.968  20.044  1.00  0.00    +0.125 C 
ATOM     16  C   UNL     1      48.673  54.885  19.186  1.00  0.00    +0.028 C 
ENDBRANCH  10  15
ENDBRANCH   1   8
TORSDOF 5
ENDMDL
MODEL 5
REMARK VINA RESULT:    -4.721      2.453      4.557
REMARK INTER + INTRA:          -6.756
REMARK INTER:                  -6.160
REMARK INTRA:                  -0.596
REMARK UNBOUND:                -0.655
REMARK SMILES CC[C@H](C)N(CC)c1n[nH]c(=S)n1CC
REMARK SMILES IDX 5 1 3 2 4 3 2 4 1 5 6 6 7 7 8 8 9 9 13 10 10 11 11 12 12 13
REMARK SMILES IDX 14 15 15 16
REMARK H PARENT 10 14
ROOT
ATOM      1  N   UNL     1      51.217  53.078  20.233  1.00  0.00    -0.339 N 
ENDROOT
BRANCH   1   2
ATOM      2  C   UNL     1      51.577  53.022  18.781  1.00  0.00    +0.081 C 
ATOM      3  C   UNL     1      53.107  53.039  18.664  1.00  0.00    +0.031 C 
BRANCH   2   4
ATOM      4  C   UNL     1      50.971  51.816  18.029  1.00  0.00    +0.021 C 
ATOM      5  C   UNL     1      49.447  51.800  18.035  1.00  0.00    +0.006 C 
ENDBRANCH   2   4
ENDBRANCH   1   2
BRANCH   1   6
ATOM      6  C   UNL     1      51.926  52.029  21.007  1.00  0.00    +0.116 C 
ATOM      7  C   UNL     1      50.973  50.917  21.422  1.00  0.00    +0.027 C 
ENDBRANCH   1   6
BRANCH   1   8
ATOM      8  C   UNL     1      51.151  54.313  20.854  1.00  0.00    +0.225 C 
ATOM      9  N   UNL     1      52.037  54.770  21.703  1.00  0.00    -0.136 NA
ATOM     10  N   UNL     1      50.116  55.179  20.635  1.00  0.00    -0.287 N 
ATOM     11  N   UNL     1      51.578  56.002  22.058  1.00  0.00    -0.250 N 
ATOM     12  C   UNL     1      50.381  56.271  21.422  1.00  0.00    +0.196 C 
ATOM     13  S   UNL     1      49.517  57.669  21.642  1.00  0.00    -0.039 S 
ATOM     14  H   UNL     1      52.061  56.588  22.726  1.00  0.00    +0.193 HD
BRANCH  10  15
ATOM     15  C   UNL     1      48.909  54.922  19.862  1.00  0.00    +0.125 C 
ATOM     16  C   UNL     1      48.968  55.563  18.484  1.00  0.00    +0.028 C 
ENDBRANCH  10  15
ENDBRANCH   1   8
TORSDOF 5
ENDMDL
