MODEL 1
REMARK VINA RESULT:    -6.891      0.000      0.000
REMARK INTER + INTRA:         -10.531
REMARK INTER:                  -9.510
REMARK INTRA:                  -1.021
REMARK UNBOUND:                -1.021
REMARK SMILES CC[C@@H](C)c1cc(S(N)(=O)=O)ccc1OCC(C)C
REMARK SMILES IDX 5 1 6 2 7 3 12 4 13 5 14 6 3 7 4 8 2 9 1 10 15 11 16 12
REMARK SMILES IDX 17 13 18 14 19 15 8 16 10 17 11 18 9 19
REMARK H PARENT 9 20 9 21
ROOT
ATOM      1  C   UNL     1      48.938  50.393  18.098  1.00  0.00    -0.002 A 
ATOM      2  C   UNL     1      50.128  50.955  18.599  1.00  0.00    +0.029 A 
ATOM      3  C   UNL     1      50.928  50.238  19.490  1.00  0.00    +0.082 A 
ATOM      4  C   UNL     1      50.551  48.966  19.915  1.00  0.00    +0.025 A 
ATOM      5  C   UNL     1      49.369  48.401  19.432  1.00  0.00    +0.048 A 
ATOM      6  C   UNL     1      48.555  49.102  18.532  1.00  0.00    +0.122 A 
ENDROOT
BRANCH   1   7
ATOM      7  C   UNL     1      48.074  51.193  17.121  1.00  0.00    +0.019 C 
ATOM      8  C   UNL     1      48.601  51.065  15.686  1.00  0.00    +0.013 C 
BRANCH   7   9
ATOM      9  C   UNL     1      47.963  52.661  17.585  1.00  0.00    +0.005 C 
ATOM     10  C   UNL     1      47.860  53.651  16.432  1.00  0.00    +0.004 C 
ENDBRANCH   7   9
ENDBRANCH   1   7
BRANCH   6  11
ATOM     11  O   UNL     1      47.386  48.618  18.010  1.00  0.00    -0.493 OA
BRANCH  11  12
ATOM     12  C   UNL     1      47.420  47.579  17.032  1.00  0.00    +0.232 C 
BRANCH  12  13
ATOM     13  C   UNL     1      46.238  47.688  16.055  1.00  0.00    +0.020 C 
ATOM     14  C   UNL     1      46.698  48.173  14.678  1.00  0.00    +0.011 C 
ATOM     15  C   UNL     1      45.169  48.622  16.619  1.00  0.00    +0.011 C 
ENDBRANCH  12  13
ENDBRANCH  11  12
ENDBRANCH   6  11
BRANCH   3  16
ATOM     16  S   UNL     1      52.424  50.956  20.111  1.00  0.00    +0.238 S 
ATOM     17  O   UNL     1      52.981  51.815  19.090  1.00  0.00    -0.207 OA
ATOM     18  O   UNL     1      52.192  51.405  21.463  1.00  0.00    -0.207 OA
BRANCH  16  19
ATOM     19  N   UNL     1      53.438  49.613  20.176  1.00  0.00    -0.225 NA
ATOM     20  H   UNL     1      52.989  48.791  20.578  1.00  0.00    +0.137 HD
ATOM     21  H   UNL     1      53.801  49.429  19.239  1.00  0.00    +0.137 HD
ENDBRANCH  16  19
ENDBRANCH   3  16
TORSDOF 7
ENDMDL
MODEL 2
REMARK VINA RESULT:    -6.621      3.566      6.601
REMARK INTER + INTRA:         -10.159
REMARK INTER:                  -9.148
REMARK INTRA:                  -1.011
REMARK UNBOUND:                -1.021
REMARK SMILES CC[C@@H](C)c1cc(S(N)(=O)=O)ccc1OCC(C)C
REMARK SMILES IDX 5 1 6 2 7 3 12 4 13 5 14 6 3 7 4 8 2 9 1 10 15 11 16 12
REMARK SMILES IDX 17 13 18 14 19 15 8 16 10 17 11 18 9 19
REMARK H PARENT 9 20 9 21
ROOT
ATOM      1  C   UNL     1      50.046  53.069  18.692  1.00  0.00    -0.002 A 
ATOM      2  C   UNL     1      49.761  51.731  18.357  1.00  0.00    +0.029 A 
ATOM      3  C   UNL     1      48.755  51.433  17.436  1.00  0.00    +0.082 A 
ATOM      4  C   UNL     1      48.004  52.450  16.851  1.00  0.00    +0.025 A 
ATOM      5  C   UNL     1      48.272  53.780  17.182  1.00  0.00    +0.048 A 
ATOM      6  C   UNL     1      49.281  54.101  18.100  1.00  0.00    +0.122 A 
ENDROOT
BRANCH   1   7
ATOM      7  C   UNL     1      51.153  53.378  19.702  1.00  0.00    +0.019 C 
ATOM      8  C   UNL     1      52.490  52.769  19.260  1.00  0.00    +0.013 C 
BRANCH   7   9
ATOM      9  C   UNL     1      50.729  52.921  21.114  1.00  0.00    +0.005 C 
ATOM     10  C   UNL     1      51.551  53.558  22.226  1.00  0.00    +0.004 C 
ENDBRANCH   7   9
ENDBRANCH   1   7
BRANCH   6  11
ATOM     11  O   UNL     1      49.607  55.377  18.473  1.00  0.00    -0.493 OA
BRANCH  11  12
ATOM     12  C   UNL     1      48.575  56.329  18.727  1.00  0.00    +0.232 C 
BRANCH  12  13
ATOM     13  C   UNL     1      48.307  56.480  20.233  1.00  0.00    +0.020 C 
ATOM     14  C   UNL     1      47.467  57.726  20.525  1.00  0.00    +0.011 C 
ATOM     15  C   UNL     1      49.625  56.535  21.002  1.00  0.00    +0.011 C 
ENDBRANCH  12  13
ENDBRANCH  11  12
ENDBRANCH   6  11
BRANCH   3  16
ATOM     16  S   UNL     1      48.408  49.745  17.021  1.00  0.00    +0.238 S 
ATOM     17  O   UNL     1      48.410  48.962  18.236  1.00  0.00    -0.207 OA
ATOM     18  O   UNL     1      47.313  49.718  16.081  1.00  0.00    -0.207 OA
BRANCH  16  19
ATOM     19  N   UNL     1      49.811  49.308  16.198  1.00  0.00    -0.225 NA
ATOM     20  H   UNL     1      49.947  49.829  15.333  1.00  0.00    +0.137 HD
ATOM     21  H   UNL     1      50.607  49.404  16.831  1.00  0.00    +0.137 HD
ENDBRANCH  16  19
ENDBRANCH   3  16
TORSDOF 7
ENDMDL
MODEL 3
REMARK VINA RESULT:    -6.370      4.433      6.980
REMARK INTER + INTRA:          -9.812
REMARK INTER:                  -8.886
REMARK INTRA:                  -0.925
REMARK UNBOUND:                -1.021
REMARK SMILES CC[C@@H](C)c1cc(S(N)(=O)=O)ccc1OCC(C)C
REMARK SMILES IDX 5 1 6 2 7 3 12 4 13 5 14 6 3 7 4 8 2 9 1 10 15 11 16 12
REMARK SMILES IDX 17 13 18 14 19 15 8 16 10 17 11 18 9 19
REMARK H PARENT 9 20 9 21
ROOT
ATOM      1  C   UNL     1      50.260  54.474  19.890  1.00  0.00    -0.002 A 
ATOM      2  C   UNL     1      50.942  53.324  19.448  1.00  0.00    +0.029 A 
ATOM      3  C   UNL     1      50.367  52.485  18.492  1.00  0.00    +0.082 A 
ATOM      4  C   UNL     1      49.101  52.759  17.978  1.00  0.00    +0.025 A 
ATOM      5  C   UNL     1      48.411  53.892  18.415  1.00  0.00    +0.048 A 
ATOM      6  C   UNL     1      48.975  54.750  19.369  1.00  0.00    +0.122 A 
ENDROOT
BRANCH   1   7
ATOM      7  C   UNL     1      50.907  55.384  20.936  1.00  0.00    +0.019 C 
ATOM      8  C   UNL     1      51.888  56.366  20.284  1.00  0.00    +0.013 C 
BRANCH   7   9
ATOM      9  C   UNL     1      51.565  54.537  22.046  1.00  0.00    +0.005 C 
ATOM     10  C   UNL     1      51.718  55.283  23.364  1.00  0.00    +0.004 C 
ENDBRANCH   7   9
ENDBRANCH   1   7
BRANCH   6  11
ATOM     11  O   UNL     1      48.366  55.880  19.845  1.00  0.00    -0.493 OA
BRANCH  11  12
ATOM     12  C   UNL     1      48.284  57.044  19.022  1.00  0.00    +0.232 C 
BRANCH  12  13
ATOM     13  C   UNL     1      48.412  58.330  19.854  1.00  0.00    +0.020 C 
ATOM     14  C   UNL     1      48.428  58.023  21.353  1.00  0.00    +0.011 C 
ATOM     15  C   UNL     1      47.275  59.293  19.520  1.00  0.00    +0.011 C 
ENDBRANCH  12  13
ENDBRANCH  11  12
ENDBRANCH   6  11
BRANCH   3  16
ATOM     16  S   UNL     1      51.237  51.042  17.943  1.00  0.00    +0.238 S 
ATOM     17  O   UNL     1      51.514  50.206  19.089  1.00  0.00    -0.207 OA
ATOM     18  O   UNL     1      50.590  50.541  16.754  1.00  0.00    -0.207 OA
BRANCH  16  19
ATOM     19  N   UNL     1      52.721  51.699  17.490  1.00  0.00    -0.225 NA
ATOM     20  H   UNL     1      52.858  51.721  16.481  1.00  0.00    +0.137 HD
ATOM     21  H   UNL     1      52.810  52.626  17.908  1.00  0.00    +0.137 HD
ENDBRANCH  16  19
ENDBRANCH   3  16
TORSDOF 7
ENDMDL
