MODEL 1
REMARK VINA RESULT:    -8.319      0.000      0.000
REMARK INTER + INTRA:         -11.441
REMARK INTER:                 -10.751
REMARK INTRA:                  -0.690
REMARK UNBOUND:                -0.690
REMARK SMILES O=[N+]([O-])c1ccc(Cl)cc1NCc1ccc(O)c(O)c1
REMARK SMILES IDX 12 1 13 2 14 3 15 4 16 5 20 6 18 7 17 8 19 10 11 12 10 14
REMARK SMILES IDX 9 15 4 16 7 17 5 18 6 19 8 20 2 21 1 22 3 23
REMARK H PARENT 17 9 19 11 11 13
ROOT
ATOM      1  C   UNL     1      49.748  53.471  19.227  1.00  0.00    +0.149 C 
ENDROOT
BRANCH   1   2
ATOM      2  C   UNL     1      50.713  52.338  19.481  1.00  0.00    -0.025 A 
ATOM      3  C   UNL     1      50.898  51.833  20.781  1.00  0.00    +0.009 A 
ATOM      4  C   UNL     1      51.814  50.806  21.023  1.00  0.00    +0.050 A 
ATOM      5  C   UNL     1      52.550  50.291  19.967  1.00  0.00    +0.157 A 
ATOM      6  C   UNL     1      51.465  51.800  18.425  1.00  0.00    +0.055 A 
ATOM      7  C   UNL     1      52.360  50.768  18.673  1.00  0.00    +0.157 A 
BRANCH   5   8
ATOM      8  O   UNL     1      53.491  49.336  20.220  1.00  0.00    -0.504 OA
ATOM      9  H   UNL     1      53.969  49.641  21.013  1.00  0.00    +0.293 HD
ENDBRANCH   5   8
BRANCH   7  10
ATOM     10  O   UNL     1      53.030  50.208  17.624  1.00  0.00    -0.504 OA
ATOM     11  H   UNL     1      53.575  49.494  18.002  1.00  0.00    +0.293 HD
ENDBRANCH   7  10
ENDBRANCH   1   2
BRANCH   1  12
ATOM     12  N   UNL     1      50.455  54.739  19.359  1.00  0.00    -0.375 N 
ATOM     13  H   UNL     1      51.465  54.592  19.474  1.00  0.00    +0.161 HD
BRANCH  12  14
ATOM     14  C   UNL     1      49.965  55.752  20.198  1.00  0.00    +0.115 A 
ATOM     15  C   UNL     1      48.741  56.391  19.930  1.00  0.00    +0.053 A 
ATOM     16  C   UNL     1      50.737  56.294  21.255  1.00  0.00    +0.292 A 
ATOM     17  C   UNL     1      48.287  57.464  20.706  1.00  0.00    +0.043 A 
ATOM     18  C   UNL     1      50.285  57.376  22.034  1.00  0.00    +0.089 A 
ATOM     19  C   UNL     1      49.050  57.956  21.760  1.00  0.00    +0.028 A 
ATOM     20 Cl   UNL     1      46.770  58.194  20.346  1.00  0.00    -0.084 Cl
BRANCH  16  21
ATOM     21  N   UNL     1      52.044  55.729  21.596  1.00  0.00    +0.064 N 
ATOM     22  O   UNL     1      52.071  54.586  22.080  1.00  0.00    -0.258 OA
ATOM     23  O   UNL     1      53.041  56.441  21.408  1.00  0.00    -0.258 OA
ENDBRANCH  16  21
ENDBRANCH  12  14
ENDBRANCH   1  12
TORSDOF 6
ENDMDL
MODEL 2
REMARK VINA RESULT:    -7.753      2.870      6.460
REMARK INTER + INTRA:         -10.709
REMARK INTER:                 -10.011
REMARK INTRA:                  -0.697
REMARK UNBOUND:                -0.690
REMARK SMILES O=[N+]([O-])c1ccc(Cl)cc1NCc1ccc(O)c(O)c1
REMARK SMILES IDX 12 1 13 2 14 3 15 4 16 5 20 6 18 7 17 8 19 10 11 12 10 14
REMARK SMILES IDX 9 15 4 16 7 17 5 18 6 19 8 20 2 21 1 22 3 23
REMARK H PARENT 17 9 19 11 11 13
ROOT
ATOM      1  C   UNL     1      49.859  54.460  18.787  1.00  0.00    +0.149 C 
ENDROOT
BRANCH   1   2
ATOM      2  C   UNL     1      49.675  55.536  19.831  1.00  0.00    -0.025 A 
ATOM      3  C   UNL     1      48.501  56.312  19.860  1.00  0.00    +0.009 A 
ATOM      4  C   UNL     1      48.343  57.329  20.804  1.00  0.00    +0.050 A 
ATOM      5  C   UNL     1      49.362  57.575  21.713  1.00  0.00    +0.157 A 
ATOM      6  C   UNL     1      50.691  55.798  20.762  1.00  0.00    +0.055 A 
ATOM      7  C   UNL     1      50.517  56.799  21.708  1.00  0.00    +0.157 A 
BRANCH   5   8
ATOM      8  O   UNL     1      49.230  58.613  22.589  1.00  0.00    -0.504 OA
ATOM      9  H   UNL     1      49.920  59.255  22.341  1.00  0.00    +0.293 HD
ENDBRANCH   5   8
BRANCH   7  10
ATOM     10  O   UNL     1      51.485  56.993  22.651  1.00  0.00    -0.504 OA
ATOM     11  H   UNL     1      52.194  56.357  22.444  1.00  0.00    +0.293 HD
ENDBRANCH   7  10
ENDBRANCH   1   2
BRANCH   1  12
ATOM     12  N   UNL     1      50.646  53.373  19.356  1.00  0.00    -0.375 N 
ATOM     13  H   UNL     1      51.653  53.545  19.246  1.00  0.00    +0.161 HD
BRANCH  12  14
ATOM     14  C   UNL     1      50.304  52.034  19.114  1.00  0.00    +0.115 A 
ATOM     15  C   UNL     1      49.249  51.696  18.248  1.00  0.00    +0.053 A 
ATOM     16  C   UNL     1      50.885  50.965  19.840  1.00  0.00    +0.292 A 
ATOM     17  C   UNL     1      48.839  50.369  18.071  1.00  0.00    +0.043 A 
ATOM     18  C   UNL     1      50.473  49.630  19.667  1.00  0.00    +0.089 A 
ATOM     19  C   UNL     1      49.449  49.334  18.772  1.00  0.00    +0.028 A 
ATOM     20 Cl   UNL     1      47.555  50.012  16.981  1.00  0.00    -0.084 Cl
BRANCH  16  21
ATOM     21  N   UNL     1      51.968  51.208  20.796  1.00  0.00    +0.064 N 
ATOM     22  O   UNL     1      53.050  50.632  20.603  1.00  0.00    -0.258 OA
ATOM     23  O   UNL     1      51.724  51.951  21.758  1.00  0.00    -0.258 OA
ENDBRANCH  16  21
ENDBRANCH  12  14
ENDBRANCH   1  12
TORSDOF 6
ENDMDL
MODEL 3
REMARK VINA RESULT:    -7.706      3.075      6.046
REMARK INTER + INTRA:         -10.648
REMARK INTER:                  -9.805
REMARK INTRA:                  -0.843
REMARK UNBOUND:                -0.690
REMARK SMILES O=[N+]([O-])c1ccc(Cl)cc1NCc1ccc(O)c(O)c1
REMARK SMILES IDX 12 1 13 2 14 3 15 4 16 5 20 6 18 7 17 8 19 10 11 12 10 14
REMARK SMILES IDX 9 15 4 16 7 17 5 18 6 19 8 20 2 21 1 22 3 23
REMARK H PARENT 17 9 19 11 11 13
ROOT
ATOM      1  C   UNL     1      49.786  53.872  18.388  1.00  0.00    +0.149 C 
ENDROOT
BRANCH   1   2
ATOM      2  C   UNL     1      50.529  54.547  19.516  1.00  0.00    -0.025 A 
ATOM      3  C   UNL     1      51.041  55.848  19.359  1.00  0.00    +0.009 A 
ATOM      4  C   UNL     1      51.757  56.461  20.391  1.00  0.00    +0.050 A 
ATOM      5  C   UNL     1      51.967  55.770  21.575  1.00  0.00    +0.157 A 
ATOM      6  C   UNL     1      50.749  53.867  20.724  1.00  0.00    +0.055 A 
ATOM      7  C   UNL     1      51.446  54.491  21.749  1.00  0.00    +0.157 A 
BRANCH   5   8
ATOM      8  O   UNL     1      52.723  56.347  22.552  1.00  0.00    -0.504 OA
ATOM      9  H   UNL     1      52.118  56.497  23.301  1.00  0.00    +0.293 HD
ENDBRANCH   5   8
BRANCH   7  10
ATOM     10  O   UNL     1      51.589  53.842  22.942  1.00  0.00    -0.504 OA
ATOM     11  H   UNL     1      51.096  54.371  23.597  1.00  0.00    +0.293 HD
ENDBRANCH   7  10
ENDBRANCH   1   2
BRANCH   1  12
ATOM     12  N   UNL     1      50.481  52.644  18.027  1.00  0.00    -0.375 N 
ATOM     13  H   UNL     1      50.966  52.741  17.127  1.00  0.00    +0.161 HD
BRANCH  12  14
ATOM     14  C   UNL     1      49.854  51.396  18.162  1.00  0.00    +0.115 A 
ATOM     15  C   UNL     1      48.543  51.185  17.698  1.00  0.00    +0.053 A 
ATOM     16  C   UNL     1      50.432  50.339  18.907  1.00  0.00    +0.292 A 
ATOM     17  C   UNL     1      47.873  49.973  17.911  1.00  0.00    +0.043 A 
ATOM     18  C   UNL     1      49.761  49.120  19.125  1.00  0.00    +0.089 A 
ATOM     19  C   UNL     1      48.478  48.939  18.617  1.00  0.00    +0.028 A 
ATOM     20 Cl   UNL     1      46.277  49.763  17.300  1.00  0.00    -0.084 Cl
BRANCH  16  21
ATOM     21  N   UNL     1      51.779  50.465  19.468  1.00  0.00    +0.064 N 
ATOM     22  O   UNL     1      51.887  50.522  20.704  1.00  0.00    -0.258 OA
ATOM     23  O   UNL     1      52.725  50.539  18.672  1.00  0.00    -0.258 OA
ENDBRANCH  16  21
ENDBRANCH  12  14
ENDBRANCH   1  12
TORSDOF 6
ENDMDL
MODEL 4
REMARK VINA RESULT:    -7.069      4.459      6.395
REMARK INTER + INTRA:          -9.825
REMARK INTER:                  -9.034
REMARK INTRA:                  -0.791
REMARK UNBOUND:                -0.690
REMARK SMILES O=[N+]([O-])c1ccc(Cl)cc1NCc1ccc(O)c(O)c1
REMARK SMILES IDX 12 1 13 2 14 3 15 4 16 5 20 6 18 7 17 8 19 10 11 12 10 14
REMARK SMILES IDX 9 15 4 16 7 17 5 18 6 19 8 20 2 21 1 22 3 23
REMARK H PARENT 17 9 19 11 11 13
ROOT
ATOM      1  C   UNL     1      47.776  58.098  20.584  1.00  0.00    +0.149 C 
ENDROOT
BRANCH   1   2
ATOM      2  C   UNL     1      48.915  57.144  20.855  1.00  0.00    -0.025 A 
ATOM      3  C   UNL     1      48.900  55.842  20.322  1.00  0.00    +0.009 A 
ATOM      4  C   UNL     1      49.937  54.947  20.597  1.00  0.00    +0.050 A 
ATOM      5  C   UNL     1      50.984  55.353  21.412  1.00  0.00    +0.157 A 
ATOM      6  C   UNL     1      49.986  57.536  21.673  1.00  0.00    +0.055 A 
ATOM      7  C   UNL     1      51.021  56.645  21.926  1.00  0.00    +0.157 A 
BRANCH   5   8
ATOM      8  O   UNL     1      51.959  54.454  21.732  1.00  0.00    -0.504 OA
ATOM      9  H   UNL     1      52.772  54.978  21.851  1.00  0.00    +0.293 HD
ENDBRANCH   5   8
BRANCH   7  10
ATOM     10  O   UNL     1      52.089  57.066  22.665  1.00  0.00    -0.504 OA
ATOM     11  H   UNL     1      52.634  57.608  22.066  1.00  0.00    +0.293 HD
ENDBRANCH   7  10
ENDBRANCH   1   2
BRANCH   1  12
ATOM     12  N   UNL     1      48.109  58.922  19.429  1.00  0.00    -0.375 N 
ATOM     13  H   UNL     1      48.341  59.882  19.710  1.00  0.00    +0.161 HD
BRANCH  12  14
ATOM     14  C   UNL     1      47.323  58.882  18.267  1.00  0.00    +0.115 A 
ATOM     15  C   UNL     1      47.511  57.883  17.294  1.00  0.00    +0.053 A 
ATOM     16  C   UNL     1      46.418  59.919  17.933  1.00  0.00    +0.292 A 
ATOM     17  C   UNL     1      46.797  57.887  16.089  1.00  0.00    +0.043 A 
ATOM     18  C   UNL     1      45.702  59.928  16.721  1.00  0.00    +0.089 A 
ATOM     19  C   UNL     1      45.890  58.901  15.800  1.00  0.00    +0.028 A 
ATOM     20 Cl   UNL     1      47.053  56.627  14.944  1.00  0.00    -0.084 Cl
BRANCH  16  21
ATOM     21  N   UNL     1      46.174  61.029  18.857  1.00  0.00    +0.064 N 
ATOM     22  O   UNL     1      44.997  61.271  19.171  1.00  0.00    -0.258 OA
ATOM     23  O   UNL     1      47.156  61.677  19.244  1.00  0.00    -0.258 OA
ENDBRANCH  16  21
ENDBRANCH  12  14
ENDBRANCH   1  12
TORSDOF 6
ENDMDL
MODEL 5
REMARK VINA RESULT:    -5.800      5.695      7.551
REMARK INTER + INTRA:          -8.185
REMARK INTER:                  -7.395
REMARK INTRA:                  -0.791
REMARK UNBOUND:                -0.690
REMARK SMILES O=[N+]([O-])c1ccc(Cl)cc1NCc1ccc(O)c(O)c1
REMARK SMILES IDX 12 1 13 2 14 3 15 4 16 5 20 6 18 7 17 8 19 10 11 12 10 14
REMARK SMILES IDX 9 15 4 16 7 17 5 18 6 19 8 20 2 21 1 22 3 23
REMARK H PARENT 17 9 19 11 11 13
ROOT
ATOM      1  C   UNL     1      47.026  59.708  19.803  1.00  0.00    +0.149 C 
ENDROOT
BRANCH   1   2
ATOM      2  C   UNL     1      47.829  58.447  20.019  1.00  0.00    -0.025 A 
ATOM      3  C   UNL     1      48.485  58.217  21.242  1.00  0.00    +0.009 A 
ATOM      4  C   UNL     1      49.255  57.066  21.431  1.00  0.00    +0.050 A 
ATOM      5  C   UNL     1      49.374  56.151  20.396  1.00  0.00    +0.157 A 
ATOM      6  C   UNL     1      47.959  57.507  18.985  1.00  0.00    +0.055 A 
ATOM      7  C   UNL     1      48.712  56.358  19.189  1.00  0.00    +0.157 A 
BRANCH   5   8
ATOM      8  O   UNL     1      50.181  55.064  20.563  1.00  0.00    -0.504 OA
ATOM      9  H   UNL     1      49.605  54.359  20.910  1.00  0.00    +0.293 HD
ENDBRANCH   5   8
BRANCH   7  10
ATOM     10  O   UNL     1      48.768  55.421  18.199  1.00  0.00    -0.504 OA
ATOM     11  H   UNL     1      47.924  54.936  18.238  1.00  0.00    +0.293 HD
ENDBRANCH   7  10
ENDBRANCH   1   2
BRANCH   1  12
ATOM     12  N   UNL     1      47.407  60.304  18.529  1.00  0.00    -0.375 N 
ATOM     13  H   UNL     1      48.110  61.041  18.658  1.00  0.00    +0.161 HD
BRANCH  12  14
ATOM     14  C   UNL     1      46.435  60.654  17.580  1.00  0.00    +0.115 A 
ATOM     15  C   UNL     1      45.888  59.695  16.708  1.00  0.00    +0.053 A 
ATOM     16  C   UNL     1      46.070  62.001  17.337  1.00  0.00    +0.292 A 
ATOM     17  C   UNL     1      44.987  60.049  15.697  1.00  0.00    +0.043 A 
ATOM     18  C   UNL     1      45.167  62.361  16.318  1.00  0.00    +0.089 A 
ATOM     19  C   UNL     1      44.620  61.376  15.501  1.00  0.00    +0.028 A 
ATOM     20 Cl   UNL     1      44.333  58.829  14.674  1.00  0.00    -0.084 Cl
BRANCH  16  21
ATOM     21  N   UNL     1      46.609  63.085  18.161  1.00  0.00    +0.064 N 
ATOM     22  O   UNL     1      46.338  63.080  19.372  1.00  0.00    -0.258 OA
ATOM     23  O   UNL     1      47.278  63.959  17.590  1.00  0.00    -0.258 OA
ENDBRANCH  16  21
ENDBRANCH  12  14
ENDBRANCH   1  12
TORSDOF 6
ENDMDL
