MODEL 1
REMARK VINA RESULT:    -7.220      0.000      0.000
REMARK INTER + INTRA:         -11.531
REMARK INTER:                 -10.807
REMARK INTRA:                  -0.724
REMARK UNBOUND:                -0.724
REMARK SMILES COC(=O)[C@H](CC(C)C)NC(=O)CSc1ccccc1N
REMARK SMILES IDX 10 1 11 2 12 3 5 5 6 6 7 7 8 8 9 9 3 10 4 11 2 12 1 13 13 14
REMARK SMILES IDX 14 15 15 16 16 17 20 18 17 19 19 20 18 21 21 22
REMARK H PARENT 10 4 21 23 21 24
ROOT
ATOM      1  N   UNL     1      50.856  52.482  18.686  1.00  0.00    -0.342 N 
ATOM      2  C   UNL     1      52.058  53.155  18.613  1.00  0.00    +0.231 C 
ATOM      3  O   UNL     1      53.037  52.710  18.022  1.00  0.00    -0.274 OA
ATOM      4  H   UNL     1      50.032  53.006  18.981  1.00  0.00    +0.164 HD
ENDROOT
BRANCH   1   5
ATOM      5  C   UNL     1      50.609  51.284  17.879  1.00  0.00    +0.192 C 
BRANCH   5   6
ATOM      6  C   UNL     1      50.204  50.088  18.758  1.00  0.00    +0.040 C 
BRANCH   6   7
ATOM      7  C   UNL     1      51.070  49.928  20.025  1.00  0.00    -0.015 C 
ATOM      8  C   UNL     1      50.479  48.841  20.926  1.00  0.00    +0.007 C 
ATOM      9  C   UNL     1      52.525  49.587  19.698  1.00  0.00    +0.007 C 
ENDBRANCH   6   7
ENDBRANCH   5   6
BRANCH   5  10
ATOM     10  C   UNL     1      49.498  51.604  16.871  1.00  0.00    +0.328 C 
ATOM     11  O   UNL     1      49.134  50.851  15.974  1.00  0.00    -0.250 OA
BRANCH  10  12
ATOM     12  O   UNL     1      48.983  52.845  17.104  1.00  0.00    -0.467 OA
ATOM     13  C   UNL     1      47.722  53.080  16.476  1.00  0.00    +0.282 C 
ENDBRANCH  10  12
ENDBRANCH   5  10
ENDBRANCH   1   5
BRANCH   2  14
ATOM     14  C   UNL     1      52.063  54.499  19.318  1.00  0.00    +0.174 C 
BRANCH  14  15
ATOM     15  S   UNL     1      51.359  54.382  21.001  1.00  0.00    -0.114 SA
BRANCH  15  16
ATOM     16  C   UNL     1      50.180  55.736  20.964  1.00  0.00    +0.031 A 
ATOM     17  C   UNL     1      49.044  55.585  20.158  1.00  0.00    +0.017 A 
ATOM     18  C   UNL     1      50.355  56.914  21.719  1.00  0.00    +0.045 A 
ATOM     19  C   UNL     1      48.051  56.564  20.148  1.00  0.00    +0.001 A 
ATOM     20  C   UNL     1      49.321  57.858  21.742  1.00  0.00    +0.026 A 
ATOM     21  C   UNL     1      48.184  57.695  20.948  1.00  0.00    +0.002 A 
BRANCH  18  22
ATOM     22  N   UNL     1      51.427  57.052  22.626  1.00  0.00    -0.398 N 
ATOM     23  H   UNL     1      51.164  56.702  23.547  1.00  0.00    +0.156 HD
ATOM     24  H   UNL     1      52.284  56.617  22.294  1.00  0.00    +0.156 HD
ENDBRANCH  18  22
ENDBRANCH  15  16
ENDBRANCH  14  15
ENDBRANCH   2  14
TORSDOF 9
ENDMDL
MODEL 2
REMARK VINA RESULT:    -7.183      2.495      6.847
REMARK INTER + INTRA:         -11.476
REMARK INTER:                 -10.669
REMARK INTRA:                  -0.807
REMARK UNBOUND:                -0.724
REMARK SMILES COC(=O)[C@H](CC(C)C)NC(=O)CSc1ccccc1N
REMARK SMILES IDX 10 1 11 2 12 3 5 5 6 6 7 7 8 8 9 9 3 10 4 11 2 12 1 13 13 14
REMARK SMILES IDX 14 15 15 16 16 17 20 18 17 19 19 20 18 21 21 22
REMARK H PARENT 10 4 21 23 21 24
ROOT
ATOM      1  N   UNL     1      50.879  54.567  21.245  1.00  0.00    -0.342 N 
ATOM      2  C   UNL     1      51.641  53.555  20.699  1.00  0.00    +0.231 C 
ATOM      3  O   UNL     1      52.357  53.716  19.715  1.00  0.00    -0.274 OA
ATOM      4  H   UNL     1      50.502  54.428  22.183  1.00  0.00    +0.164 HD
ENDROOT
BRANCH   1   5
ATOM      5  C   UNL     1      51.040  55.956  20.809  1.00  0.00    +0.192 C 
BRANCH   5   6
ATOM      6  C   UNL     1      49.889  56.842  21.317  1.00  0.00    +0.040 C 
BRANCH   6   7
ATOM      7  C   UNL     1      48.583  56.683  20.511  1.00  0.00    -0.015 C 
ATOM      8  C   UNL     1      47.695  57.915  20.712  1.00  0.00    +0.007 C 
ATOM      9  C   UNL     1      48.840  56.476  19.018  1.00  0.00    +0.007 C 
ENDBRANCH   6   7
ENDBRANCH   5   6
BRANCH   5  10
ATOM     10  C   UNL     1      52.384  56.473  21.338  1.00  0.00    +0.328 C 
ATOM     11  O   UNL     1      52.740  56.412  22.510  1.00  0.00    -0.250 OA
BRANCH  10  12
ATOM     12  O   UNL     1      53.117  57.021  20.327  1.00  0.00    -0.467 OA
ATOM     13  C   UNL     1      54.187  57.856  20.771  1.00  0.00    +0.282 C 
ENDBRANCH  10  12
ENDBRANCH   5  10
ENDBRANCH   1   5
BRANCH   2  14
ATOM     14  C   UNL     1      51.527  52.227  21.426  1.00  0.00    +0.174 C 
BRANCH  14  15
ATOM     15  S   UNL     1      52.399  50.891  20.533  1.00  0.00    -0.114 SA
BRANCH  15  16
ATOM     16  C   UNL     1      51.096  50.317  19.439  1.00  0.00    +0.031 A 
ATOM     17  C   UNL     1      50.200  49.363  19.942  1.00  0.00    +0.017 A 
ATOM     18  C   UNL     1      50.944  50.800  18.123  1.00  0.00    +0.045 A 
ATOM     19  C   UNL     1      49.119  48.936  19.171  1.00  0.00    +0.001 A 
ATOM     20  C   UNL     1      49.820  50.405  17.388  1.00  0.00    +0.026 A 
ATOM     21  C   UNL     1      48.922  49.465  17.899  1.00  0.00    +0.002 A 
BRANCH  18  22
ATOM     22  N   UNL     1      51.756  51.841  17.625  1.00  0.00    -0.398 N 
ATOM     23  H   UNL     1      51.883  51.746  16.618  1.00  0.00    +0.156 HD
ATOM     24  H   UNL     1      51.406  52.765  17.869  1.00  0.00    +0.156 HD
ENDBRANCH  18  22
ENDBRANCH  15  16
ENDBRANCH  14  15
ENDBRANCH   2  14
TORSDOF 9
ENDMDL
MODEL 3
REMARK VINA RESULT:    -7.122      1.793      3.298
REMARK INTER + INTRA:         -11.384
REMARK INTER:                 -10.524
REMARK INTRA:                  -0.860
REMARK UNBOUND:                -0.724
REMARK SMILES COC(=O)[C@H](CC(C)C)NC(=O)CSc1ccccc1N
REMARK SMILES IDX 10 1 11 2 12 3 5 5 6 6 7 7 8 8 9 9 3 10 4 11 2 12 1 13 13 14
REMARK SMILES IDX 14 15 15 16 16 17 20 18 17 19 19 20 18 21 21 22
REMARK H PARENT 10 4 21 23 21 24
ROOT
ATOM      1  N   UNL     1      50.897  52.693  19.696  1.00  0.00    -0.342 N 
ATOM      2  C   UNL     1      51.069  52.758  21.063  1.00  0.00    +0.231 C 
ATOM      3  O   UNL     1      50.777  51.834  21.817  1.00  0.00    -0.274 OA
ATOM      4  H   UNL     1      51.373  53.388  19.121  1.00  0.00    +0.164 HD
ENDROOT
BRANCH   1   5
ATOM      5  C   UNL     1      50.549  51.432  19.036  1.00  0.00    +0.192 C 
BRANCH   5   6
ATOM      6  C   UNL     1      49.908  51.678  17.659  1.00  0.00    +0.040 C 
BRANCH   6   7
ATOM      7  C   UNL     1      48.463  52.213  17.734  1.00  0.00    -0.015 C 
ATOM      8  C   UNL     1      48.419  53.664  17.246  1.00  0.00    +0.007 C 
ATOM      9  C   UNL     1      47.485  51.369  16.915  1.00  0.00    +0.007 C 
ENDBRANCH   6   7
ENDBRANCH   5   6
BRANCH   5  10
ATOM     10  C   UNL     1      51.828  50.599  18.887  1.00  0.00    +0.328 C 
ATOM     11  O   UNL     1      52.716  50.826  18.072  1.00  0.00    -0.250 OA
BRANCH  10  12
ATOM     12  O   UNL     1      51.831  49.564  19.776  1.00  0.00    -0.467 OA
ATOM     13  C   UNL     1      50.563  48.928  19.935  1.00  0.00    +0.282 C 
ENDBRANCH  10  12
ENDBRANCH   5  10
ENDBRANCH   1   5
BRANCH   2  14
ATOM     14  C   UNL     1      51.662  54.066  21.556  1.00  0.00    +0.174 C 
BRANCH  14  15
ATOM     15  S   UNL     1      51.799  55.294  20.209  1.00  0.00    -0.114 SA
BRANCH  15  16
ATOM     16  C   UNL     1      50.408  56.364  20.592  1.00  0.00    +0.031 A 
ATOM     17  C   UNL     1      49.197  56.114  19.934  1.00  0.00    +0.017 A 
ATOM     18  C   UNL     1      50.496  57.414  21.529  1.00  0.00    +0.045 A 
ATOM     19  C   UNL     1      48.058  56.856  20.245  1.00  0.00    +0.001 A 
ATOM     20  C   UNL     1      49.329  58.108  21.872  1.00  0.00    +0.026 A 
ATOM     21  C   UNL     1      48.121  57.845  21.222  1.00  0.00    +0.002 A 
BRANCH  18  22
ATOM     22  N   UNL     1      51.664  57.622  22.293  1.00  0.00    -0.398 N 
ATOM     23  H   UNL     1      51.872  58.617  22.366  1.00  0.00    +0.156 HD
ATOM     24  H   UNL     1      51.618  57.184  23.210  1.00  0.00    +0.156 HD
ENDBRANCH  18  22
ENDBRANCH  15  16
ENDBRANCH  14  15
ENDBRANCH   2  14
TORSDOF 9
ENDMDL
MODEL 4
REMARK VINA RESULT:    -7.078      2.655      6.460
REMARK INTER + INTRA:         -11.319
REMARK INTER:                 -10.261
REMARK INTRA:                  -1.058
REMARK UNBOUND:                -0.724
REMARK SMILES COC(=O)[C@H](CC(C)C)NC(=O)CSc1ccccc1N
REMARK SMILES IDX 10 1 11 2 12 3 5 5 6 6 7 7 8 8 9 9 3 10 4 11 2 12 1 13 13 14
REMARK SMILES IDX 14 15 15 16 16 17 20 18 17 19 19 20 18 21 21 22
REMARK H PARENT 10 4 21 23 21 24
ROOT
ATOM      1  N   UNL     1      49.552  53.210  18.331  1.00  0.00    -0.342 N 
ATOM      2  C   UNL     1      48.636  53.902  17.567  1.00  0.00    +0.231 C 
ATOM      3  O   UNL     1      48.610  55.128  17.504  1.00  0.00    -0.274 OA
ATOM      4  H   UNL     1      49.666  52.212  18.153  1.00  0.00    +0.164 HD
ENDROOT
BRANCH   1   5
ATOM      5  C   UNL     1      50.689  53.892  18.953  1.00  0.00    +0.192 C 
BRANCH   5   6
ATOM      6  C   UNL     1      50.423  54.189  20.439  1.00  0.00    +0.040 C 
BRANCH   6   7
ATOM      7  C   UNL     1      50.730  55.646  20.845  1.00  0.00    -0.015 C 
ATOM      8  C   UNL     1      49.428  56.447  20.931  1.00  0.00    +0.007 C 
ATOM      9  C   UNL     1      51.474  55.735  22.179  1.00  0.00    +0.007 C 
ENDBRANCH   6   7
ENDBRANCH   5   6
BRANCH   5  10
ATOM     10  C   UNL     1      51.927  52.999  18.802  1.00  0.00    +0.328 C 
ATOM     11  O   UNL     1      53.014  53.382  18.383  1.00  0.00    -0.250 OA
BRANCH  10  12
ATOM     12  O   UNL     1      51.645  51.721  19.185  1.00  0.00    -0.467 OA
ATOM     13  C   UNL     1      52.571  51.177  20.126  1.00  0.00    +0.282 C 
ENDBRANCH  10  12
ENDBRANCH   5  10
ENDBRANCH   1   5
BRANCH   2  14
ATOM     14  C   UNL     1      47.669  53.019  16.800  1.00  0.00    +0.174 C 
BRANCH  14  15
ATOM     15  S   UNL     1      48.486  51.510  16.171  1.00  0.00    -0.114 SA
BRANCH  15  16
ATOM     16  C   UNL     1      47.727  50.260  17.213  1.00  0.00    +0.031 A 
ATOM     17  C   UNL     1      46.355  50.026  17.051  1.00  0.00    +0.017 A 
ATOM     18  C   UNL     1      48.461  49.514  18.158  1.00  0.00    +0.045 A 
ATOM     19  C   UNL     1      45.722  49.015  17.771  1.00  0.00    +0.001 A 
ATOM     20  C   UNL     1      47.821  48.464  18.828  1.00  0.00    +0.026 A 
ATOM     21  C   UNL     1      46.457  48.226  18.651  1.00  0.00    +0.002 A 
BRANCH  18  22
ATOM     22  N   UNL     1      49.862  49.643  18.268  1.00  0.00    -0.398 N 
ATOM     23  H   UNL     1      50.177  50.510  17.835  1.00  0.00    +0.156 HD
ATOM     24  H   UNL     1      50.191  49.566  19.228  1.00  0.00    +0.156 HD
ENDBRANCH  18  22
ENDBRANCH  15  16
ENDBRANCH  14  15
ENDBRANCH   2  14
TORSDOF 9
ENDMDL
MODEL 5
REMARK VINA RESULT:    -6.853      3.092      4.340
REMARK INTER + INTRA:         -10.982
REMARK INTER:                 -10.350
REMARK INTRA:                  -0.632
REMARK UNBOUND:                -0.724
REMARK SMILES COC(=O)[C@H](CC(C)C)NC(=O)CSc1ccccc1N
REMARK SMILES IDX 10 1 11 2 12 3 5 5 6 6 7 7 8 8 9 9 3 10 4 11 2 12 1 13 13 14
REMARK SMILES IDX 14 15 15 16 16 17 20 18 17 19 19 20 18 21 21 22
REMARK H PARENT 10 4 21 23 21 24
ROOT
ATOM      1  N   UNL     1      49.058  50.022  18.112  1.00  0.00    -0.342 N 
ATOM      2  C   UNL     1      50.199  50.499  18.724  1.00  0.00    +0.231 C 
ATOM      3  O   UNL     1      50.835  49.850  19.550  1.00  0.00    -0.274 OA
ATOM      4  H   UNL     1      48.724  50.507  17.279  1.00  0.00    +0.164 HD
ENDROOT
BRANCH   1   5
ATOM      5  C   UNL     1      48.651  48.622  18.256  1.00  0.00    +0.192 C 
BRANCH   5   6
ATOM      6  C   UNL     1      47.271  48.504  18.925  1.00  0.00    +0.040 C 
BRANCH   6   7
ATOM      7  C   UNL     1      46.119  48.251  17.929  1.00  0.00    -0.015 C 
ATOM      8  C   UNL     1      45.064  47.347  18.573  1.00  0.00    +0.007 C 
ATOM      9  C   UNL     1      45.462  49.548  17.457  1.00  0.00    +0.007 C 
ENDBRANCH   6   7
ENDBRANCH   5   6
BRANCH   5  10
ATOM     10  C   UNL     1      48.623  47.984  16.861  1.00  0.00    +0.328 C 
ATOM     11  O   UNL     1      48.659  46.777  16.647  1.00  0.00    -0.250 OA
BRANCH  10  12
ATOM     12  O   UNL     1      48.568  48.946  15.895  1.00  0.00    -0.467 OA
ATOM     13  C   UNL     1      49.644  48.894  14.959  1.00  0.00    +0.282 C 
ENDBRANCH  10  12
ENDBRANCH   5  10
ENDBRANCH   1   5
BRANCH   2  14
ATOM     14  C   UNL     1      50.608  51.892  18.280  1.00  0.00    +0.174 C 
BRANCH  14  15
ATOM     15  S   UNL     1      52.342  52.261  18.728  1.00  0.00    -0.114 SA
BRANCH  15  16
ATOM     16  C   UNL     1      52.096  53.424  20.074  1.00  0.00    +0.031 A 
ATOM     17  C   UNL     1      52.105  54.789  19.763  1.00  0.00    +0.017 A 
ATOM     18  C   UNL     1      51.885  53.007  21.405  1.00  0.00    +0.045 A 
ATOM     19  C   UNL     1      51.840  55.740  20.748  1.00  0.00    +0.001 A 
ATOM     20  C   UNL     1      51.562  53.971  22.368  1.00  0.00    +0.026 A 
ATOM     21  C   UNL     1      51.557  55.330  22.048  1.00  0.00    +0.002 A 
BRANCH  18  22
ATOM     22  N   UNL     1      51.756  51.641  21.736  1.00  0.00    -0.398 N 
ATOM     23  H   UNL     1      51.631  51.526  22.741  1.00  0.00    +0.156 HD
ATOM     24  H   UNL     1      51.017  51.177  21.214  1.00  0.00    +0.156 HD
ENDBRANCH  18  22
ENDBRANCH  15  16
ENDBRANCH  14  15
ENDBRANCH   2  14
TORSDOF 9
ENDMDL
