MODEL 1
REMARK VINA RESULT:    -7.189      0.000      0.000
REMARK INTER + INTRA:         -10.346
REMARK INTER:                  -9.711
REMARK INTRA:                  -0.635
REMARK UNBOUND:                -0.635
REMARK SMILES CCOc1nc(N2CCCC[C@H]2CCO)ccc1N
REMARK SMILES IDX 7 1 8 2 9 3 10 4 11 5 12 6 6 7 4 8 18 9 5 10 17 11 16 12
REMARK SMILES IDX 3 13 2 14 1 15 19 16 13 19 14 20 15 21
REMARK H PARENT 19 17 19 18 15 22
ROOT
ATOM      1  N   UNL     1      50.126  52.181  19.371  1.00  0.00    -0.353 N 
ATOM      2  C   UNL     1      49.836  52.641  18.006  1.00  0.00    +0.118 C 
ATOM      3  C   UNL     1      49.296  51.510  17.125  1.00  0.00    +0.022 C 
ATOM      4  C   UNL     1      48.581  50.450  17.947  1.00  0.00    +0.004 C 
ATOM      5  C   UNL     1      49.500  49.840  19.009  1.00  0.00    +0.025 C 
ATOM      6  C   UNL     1      50.587  50.798  19.552  1.00  0.00    +0.086 C 
ENDROOT
BRANCH   1   7
ATOM      7  C   UNL     1      50.505  53.179  20.266  1.00  0.00    +0.133 A 
ATOM      8  C   UNL     1      50.536  55.428  20.855  1.00  0.00    +0.239 A 
ATOM      9  C   UNL     1      51.293  55.217  22.011  1.00  0.00    +0.095 A 
ATOM     10  N   UNL     1      50.164  54.456  19.988  1.00  0.00    -0.194 NA
ATOM     11  C   UNL     1      51.578  53.895  22.320  1.00  0.00    +0.035 A 
ATOM     12  C   UNL     1      51.194  52.879  21.442  1.00  0.00    +0.049 A 
BRANCH   8  13
ATOM     13  O   UNL     1      50.198  56.747  20.580  1.00  0.00    -0.476 OA
BRANCH  13  14
ATOM     14  C   UNL     1      48.815  57.026  20.798  1.00  0.00    +0.228 C 
ATOM     15  C   UNL     1      48.724  58.234  21.715  1.00  0.00    +0.049 C 
ENDBRANCH  13  14
ENDBRANCH   8  13
BRANCH   9  16
ATOM     16  N   UNL     1      51.562  56.237  22.940  1.00  0.00    -0.394 N 
ATOM     17  H   UNL     1      51.933  55.905  23.822  1.00  0.00    +0.156 HD
ATOM     18  H   UNL     1      52.124  56.977  22.521  1.00  0.00    +0.156 HD
ENDBRANCH   9  16
ENDBRANCH   1   7
BRANCH   6  19
ATOM     19  C   UNL     1      51.956  50.537  18.892  1.00  0.00    +0.053 C 
BRANCH  19  20
ATOM     20  C   UNL     1      52.982  49.926  19.837  1.00  0.00    +0.158 C 
BRANCH  20  21
ATOM     21  O   UNL     1      52.715  48.534  19.987  1.00  0.00    -0.396 OA
ATOM     22  H   UNL     1      51.750  48.435  20.057  1.00  0.00    +0.210 HD
ENDBRANCH  20  21
ENDBRANCH  19  20
ENDBRANCH   6  19
TORSDOF 7
ENDMDL
MODEL 2
REMARK VINA RESULT:    -7.085      3.269      5.123
REMARK INTER + INTRA:         -10.204
REMARK INTER:                  -9.545
REMARK INTRA:                  -0.660
REMARK UNBOUND:                -0.635
REMARK SMILES CCOc1nc(N2CCCC[C@H]2CCO)ccc1N
REMARK SMILES IDX 7 1 8 2 9 3 10 4 11 5 12 6 6 7 4 8 18 9 5 10 17 11 16 12
REMARK SMILES IDX 3 13 2 14 1 15 19 16 13 19 14 20 15 21
REMARK H PARENT 19 17 19 18 15 22
ROOT
ATOM      1  N   UNL     1      48.422  49.092  17.802  1.00  0.00    -0.353 N 
ATOM      2  C   UNL     1      48.868  47.970  16.965  1.00  0.00    +0.118 C 
ATOM      3  C   UNL     1      47.864  47.652  15.853  1.00  0.00    +0.022 C 
ATOM      4  C   UNL     1      47.060  48.879  15.455  1.00  0.00    +0.004 C 
ATOM      5  C   UNL     1      46.296  49.467  16.644  1.00  0.00    +0.025 C 
ATOM      6  C   UNL     1      46.979  49.263  18.017  1.00  0.00    +0.086 C 
ENDROOT
BRANCH   1   7
ATOM      7  C   UNL     1      49.339  49.520  18.759  1.00  0.00    +0.133 A 
ATOM      8  C   UNL     1      50.773  51.168  19.557  1.00  0.00    +0.239 A 
ATOM      9  C   UNL     1      51.223  50.395  20.631  1.00  0.00    +0.095 A 
ATOM     10  N   UNL     1      49.877  50.752  18.630  1.00  0.00    -0.194 NA
ATOM     11  C   UNL     1      50.613  49.160  20.792  1.00  0.00    +0.035 A 
ATOM     12  C   UNL     1      49.681  48.718  19.849  1.00  0.00    +0.049 A 
BRANCH   8  13
ATOM     13  O   UNL     1      51.339  52.431  19.434  1.00  0.00    -0.476 OA
BRANCH  13  14
ATOM     14  C   UNL     1      50.370  53.460  19.234  1.00  0.00    +0.228 C 
ATOM     15  C   UNL     1      49.999  54.021  20.595  1.00  0.00    +0.049 C 
ENDBRANCH  13  14
ENDBRANCH   8  13
BRANCH   9  16
ATOM     16  N   UNL     1      52.068  50.904  21.632  1.00  0.00    -0.394 N 
ATOM     17  H   UNL     1      51.582  51.219  22.463  1.00  0.00    +0.156 HD
ATOM     18  H   UNL     1      52.831  50.259  21.833  1.00  0.00    +0.156 HD
ENDBRANCH   9  16
ENDBRANCH   1   7
BRANCH   6  19
ATOM     19  C   UNL     1      46.351  48.090  18.796  1.00  0.00    +0.053 C 
BRANCH  19  20
ATOM     20  C   UNL     1      44.945  47.732  18.331  1.00  0.00    +0.158 C 
BRANCH  20  21
ATOM     21  O   UNL     1      44.506  46.561  19.015  1.00  0.00    -0.396 OA
ATOM     22  H   UNL     1      44.633  46.723  19.966  1.00  0.00    +0.210 HD
ENDBRANCH  20  21
ENDBRANCH  19  20
ENDBRANCH   6  19
TORSDOF 7
ENDMDL
MODEL 3
REMARK VINA RESULT:    -6.689      2.835      4.494
REMARK INTER + INTRA:          -9.670
REMARK INTER:                  -9.007
REMARK INTRA:                  -0.663
REMARK UNBOUND:                -0.635
REMARK SMILES CCOc1nc(N2CCCC[C@H]2CCO)ccc1N
REMARK SMILES IDX 7 1 8 2 9 3 10 4 11 5 12 6 6 7 4 8 18 9 5 10 17 11 16 12
REMARK SMILES IDX 3 13 2 14 1 15 19 16 13 19 14 20 15 21
REMARK H PARENT 19 17 19 18 15 22
ROOT
ATOM      1  N   UNL     1      48.444  49.244  17.589  1.00  0.00    -0.353 N 
ATOM      2  C   UNL     1      47.169  49.973  17.591  1.00  0.00    +0.118 C 
ATOM      3  C   UNL     1      46.179  49.397  16.575  1.00  0.00    +0.022 C 
ATOM      4  C   UNL     1      46.433  47.920  16.319  1.00  0.00    +0.004 C 
ATOM      5  C   UNL     1      47.853  47.669  15.807  1.00  0.00    +0.025 C 
ATOM      6  C   UNL     1      48.913  48.675  16.319  1.00  0.00    +0.086 C 
ENDROOT
BRANCH   1   7
ATOM      7  C   UNL     1      49.352  49.632  18.572  1.00  0.00    +0.133 A 
ATOM      8  C   UNL     1      50.583  51.313  19.604  1.00  0.00    +0.239 A 
ATOM      9  C   UNL     1      51.211  50.440  20.497  1.00  0.00    +0.095 A 
ATOM     10  N   UNL     1      49.696  50.935  18.652  1.00  0.00    -0.194 NA
ATOM     11  C   UNL     1      50.798  49.117  20.450  1.00  0.00    +0.035 A 
ATOM     12  C   UNL     1      49.878  48.712  19.480  1.00  0.00    +0.049 A 
BRANCH   8  13
ATOM     13  O   UNL     1      50.951  52.649  19.695  1.00  0.00    -0.476 OA
BRANCH  13  14
ATOM     14  C   UNL     1      50.006  53.531  19.089  1.00  0.00    +0.228 C 
ATOM     15  C   UNL     1      49.569  54.536  20.140  1.00  0.00    +0.049 C 
ENDBRANCH  13  14
ENDBRANCH   8  13
BRANCH   9  16
ATOM     16  N   UNL     1      52.039  50.888  21.541  1.00  0.00    -0.394 N 
ATOM     17  H   UNL     1      51.949  50.356  22.398  1.00  0.00    +0.156 HD
ATOM     18  H   UNL     1      53.004  50.986  21.229  1.00  0.00    +0.156 HD
ENDBRANCH   9  16
ENDBRANCH   1   7
BRANCH   6  19
ATOM     19  C   UNL     1      49.227  49.754  15.263  1.00  0.00    +0.053 C 
BRANCH  19  20
ATOM     20  C   UNL     1      50.713  49.891  14.955  1.00  0.00    +0.158 C 
BRANCH  20  21
ATOM     21  O   UNL     1      51.187  48.680  14.373  1.00  0.00    -0.396 OA
ATOM     22  H   UNL     1      51.899  48.348  14.947  1.00  0.00    +0.210 HD
ENDBRANCH  20  21
ENDBRANCH  19  20
ENDBRANCH   6  19
TORSDOF 7
ENDMDL
MODEL 4
REMARK VINA RESULT:    -6.559      2.639      4.588
REMARK INTER + INTRA:          -9.494
REMARK INTER:                  -8.733
REMARK INTRA:                  -0.761
REMARK UNBOUND:                -0.635
REMARK SMILES CCOc1nc(N2CCCC[C@H]2CCO)ccc1N
REMARK SMILES IDX 7 1 8 2 9 3 10 4 11 5 12 6 6 7 4 8 18 9 5 10 17 11 16 12
REMARK SMILES IDX 3 13 2 14 1 15 19 16 13 19 14 20 15 21
REMARK H PARENT 19 17 19 18 15 22
ROOT
ATOM      1  N   UNL     1      48.691  49.746  17.573  1.00  0.00    -0.353 N 
ATOM      2  C   UNL     1      47.563  48.857  17.879  1.00  0.00    +0.118 C 
ATOM      3  C   UNL     1      46.752  48.510  16.627  1.00  0.00    +0.022 C 
ATOM      4  C   UNL     1      47.607  48.569  15.372  1.00  0.00    +0.004 C 
ATOM      5  C   UNL     1      48.233  49.952  15.175  1.00  0.00    +0.025 C 
ATOM      6  C   UNL     1      48.530  50.720  16.486  1.00  0.00    +0.086 C 
ENDROOT
BRANCH   1   7
ATOM      7  C   UNL     1      49.547  50.008  18.641  1.00  0.00    +0.133 A 
ATOM      8  C   UNL     1      50.827  51.527  19.850  1.00  0.00    +0.239 A 
ATOM      9  C   UNL     1      51.307  50.563  20.741  1.00  0.00    +0.095 A 
ATOM     10  N   UNL     1      49.991  51.271  18.815  1.00  0.00    -0.194 NA
ATOM     11  C   UNL     1      50.791  49.284  20.594  1.00  0.00    +0.035 A 
ATOM     12  C   UNL     1      49.921  49.005  19.537  1.00  0.00    +0.049 A 
BRANCH   8  13
ATOM     13  O   UNL     1      51.296  52.820  20.038  1.00  0.00    -0.476 OA
BRANCH  13  14
ATOM     14  C   UNL     1      50.367  53.657  20.726  1.00  0.00    +0.228 C 
ATOM     15  C   UNL     1      51.159  54.706  21.486  1.00  0.00    +0.049 C 
ENDBRANCH  13  14
ENDBRANCH   8  13
BRANCH   9  16
ATOM     16  N   UNL     1      52.083  50.889  21.867  1.00  0.00    -0.394 N 
ATOM     17  H   UNL     1      51.541  51.140  22.685  1.00  0.00    +0.156 HD
ATOM     18  H   UNL     1      52.782  50.170  22.053  1.00  0.00    +0.156 HD
ENDBRANCH   9  16
ENDBRANCH   1   7
BRANCH   6  19
ATOM     19  C   UNL     1      47.443  51.771  16.787  1.00  0.00    +0.053 C 
BRANCH  19  20
ATOM     20  C   UNL     1      47.876  53.200  16.484  1.00  0.00    +0.158 C 
BRANCH  20  21
ATOM     21  O   UNL     1      48.642  53.702  17.576  1.00  0.00    -0.396 OA
ATOM     22  H   UNL     1      48.845  54.632  17.378  1.00  0.00    +0.210 HD
ENDBRANCH  20  21
ENDBRANCH  19  20
ENDBRANCH   6  19
TORSDOF 7
ENDMDL
MODEL 5
REMARK VINA RESULT:    -6.410      2.146      5.859
REMARK INTER + INTRA:          -9.293
REMARK INTER:                  -8.368
REMARK INTRA:                  -0.925
REMARK UNBOUND:                -0.635
REMARK SMILES CCOc1nc(N2CCCC[C@H]2CCO)ccc1N
REMARK SMILES IDX 7 1 8 2 9 3 10 4 11 5 12 6 6 7 4 8 18 9 5 10 17 11 16 12
REMARK SMILES IDX 3 13 2 14 1 15 19 16 13 19 14 20 15 21
REMARK H PARENT 19 17 19 18 15 22
ROOT
ATOM      1  N   UNL     1      50.247  54.917  19.636  1.00  0.00    -0.353 N 
ATOM      2  C   UNL     1      49.277  55.842  20.237  1.00  0.00    +0.118 C 
ATOM      3  C   UNL     1      49.957  56.881  21.133  1.00  0.00    +0.022 C 
ATOM      4  C   UNL     1      51.387  57.151  20.694  1.00  0.00    +0.004 C 
ATOM      5  C   UNL     1      52.234  55.876  20.703  1.00  0.00    +0.025 C 
ATOM      6  C   UNL     1      51.448  54.575  20.411  1.00  0.00    +0.086 C 
ENDROOT
BRANCH   1   7
ATOM      7  C   UNL     1      49.718  54.019  18.712  1.00  0.00    +0.133 A 
ATOM      8  C   UNL     1      49.709  51.893  17.771  1.00  0.00    +0.239 A 
ATOM      9  C   UNL     1      48.718  52.204  16.836  1.00  0.00    +0.095 A 
ATOM     10  N   UNL     1      50.219  52.766  18.673  1.00  0.00    -0.194 NA
ATOM     11  C   UNL     1      48.164  53.472  16.931  1.00  0.00    +0.035 A 
ATOM     12  C   UNL     1      48.673  54.382  17.861  1.00  0.00    +0.049 A 
BRANCH   8  13
ATOM     13  O   UNL     1      50.218  50.602  17.715  1.00  0.00    -0.476 OA
BRANCH  13  14
ATOM     14  C   UNL     1      50.060  49.885  18.939  1.00  0.00    +0.228 C 
ATOM     15  C   UNL     1      48.845  48.985  18.798  1.00  0.00    +0.049 C 
ENDBRANCH  13  14
ENDBRANCH   8  13
BRANCH   9  16
ATOM     16  N   UNL     1      48.139  51.239  15.994  1.00  0.00    -0.394 N 
ATOM     17  H   UNL     1      47.709  50.464  16.486  1.00  0.00    +0.156 HD
ATOM     18  H   UNL     1      47.520  51.671  15.309  1.00  0.00    +0.156 HD
ENDBRANCH   9  16
ENDBRANCH   1   7
BRANCH   6  19
ATOM     19  C   UNL     1      51.120  53.805  21.706  1.00  0.00    +0.053 C 
BRANCH  19  20
ATOM     20  C   UNL     1      51.735  52.412  21.760  1.00  0.00    +0.158 C 
BRANCH  20  21
ATOM     21  O   UNL     1      52.390  52.138  20.524  1.00  0.00    -0.396 OA
ATOM     22  H   UNL     1      53.308  51.896  20.736  1.00  0.00    +0.210 HD
ENDBRANCH  20  21
ENDBRANCH  19  20
ENDBRANCH   6  19
TORSDOF 7
ENDMDL
