MODEL 1
REMARK VINA RESULT:    -6.873      0.000      0.000
REMARK INTER + INTRA:         -10.034
REMARK INTER:                  -9.284
REMARK INTRA:                  -0.750
REMARK UNBOUND:                -0.750
REMARK SMILES CC[C@@H](C)[C@H](C)Nc1ccccc1NS(C)(=O)=O
REMARK SMILES IDX 7 1 5 3 6 4 3 5 4 6 2 7 1 8 8 9 9 10 13 11 10 12 12 13 11 14
REMARK SMILES IDX 14 15 15 17 17 18 18 19 16 20
REMARK H PARENT 7 2 14 16
ROOT
ATOM      1  N   UNL     1      49.825  56.709  20.356  1.00  0.00    -0.381 N 
ATOM      2  H   UNL     1      50.527  57.436  20.552  1.00  0.00    +0.160 HD
ENDROOT
BRANCH   1   3
ATOM      3  C   UNL     1      48.468  57.204  20.662  1.00  0.00    +0.079 C 
ATOM      4  C   UNL     1      48.615  58.290  21.741  1.00  0.00    +0.031 C 
BRANCH   3   5
ATOM      5  C   UNL     1      47.790  57.699  19.349  1.00  0.00    +0.008 C 
ATOM      6  C   UNL     1      48.234  56.936  18.096  1.00  0.00    +0.010 C 
BRANCH   5   7
ATOM      7  C   UNL     1      47.888  59.228  19.149  1.00  0.00    +0.002 C 
ATOM      8  C   UNL     1      46.578  60.000  19.160  1.00  0.00    +0.004 C 
ENDBRANCH   5   7
ENDBRANCH   3   5
ENDBRANCH   1   3
BRANCH   1   9
ATOM      9  C   UNL     1      50.304  55.496  20.899  1.00  0.00    +0.059 A 
ATOM     10  C   UNL     1      49.962  54.224  20.429  1.00  0.00    +0.028 A 
ATOM     11  C   UNL     1      51.262  55.562  21.939  1.00  0.00    +0.072 A 
ATOM     12  C   UNL     1      50.487  53.070  21.023  1.00  0.00    +0.002 A 
ATOM     13  C   UNL     1      51.772  54.417  22.551  1.00  0.00    +0.029 A 
ATOM     14  C   UNL     1      51.381  53.165  22.090  1.00  0.00    +0.002 A 
BRANCH  11  15
ATOM     15  N   UNL     1      51.701  56.856  22.403  1.00  0.00    -0.282 N 
ATOM     16  H   UNL     1      51.943  56.746  23.395  1.00  0.00    +0.180 HD
BRANCH  15  17
ATOM     17  S   UNL     1      53.077  57.437  21.592  1.00  0.00    +0.229 S 
ATOM     18  O   UNL     1      53.124  56.901  20.250  1.00  0.00    -0.207 OA
ATOM     19  O   UNL     1      54.182  57.284  22.517  1.00  0.00    -0.207 OA
ATOM     20  C   UNL     1      52.668  59.162  21.478  1.00  0.00    +0.183 C 
ENDBRANCH  15  17
ENDBRANCH  11  15
ENDBRANCH   1   9
TORSDOF 6
ENDMDL
MODEL 2
REMARK VINA RESULT:    -6.788      1.555      4.638
REMARK INTER + INTRA:          -9.919
REMARK INTER:                  -9.470
REMARK INTRA:                  -0.449
REMARK UNBOUND:                -0.750
REMARK SMILES CC[C@@H](C)[C@H](C)Nc1ccccc1NS(C)(=O)=O
REMARK SMILES IDX 7 1 5 3 6 4 3 5 4 6 2 7 1 8 8 9 9 10 13 11 10 12 12 13 11 14
REMARK SMILES IDX 14 15 15 17 17 18 18 19 16 20
REMARK H PARENT 7 2 14 16
ROOT
ATOM      1  N   UNL     1      51.120  54.821  20.814  1.00  0.00    -0.381 N 
ATOM      2  H   UNL     1      52.039  55.285  20.816  1.00  0.00    +0.160 HD
ENDROOT
BRANCH   1   3
ATOM      3  C   UNL     1      51.078  53.760  19.787  1.00  0.00    +0.079 C 
ATOM      4  C   UNL     1      52.458  53.732  19.109  1.00  0.00    +0.031 C 
BRANCH   3   5
ATOM      5  C   UNL     1      50.667  52.412  20.452  1.00  0.00    +0.008 C 
ATOM      6  C   UNL     1      51.509  52.045  21.680  1.00  0.00    +0.010 C 
BRANCH   5   7
ATOM      7  C   UNL     1      50.579  51.239  19.451  1.00  0.00    +0.002 C 
ATOM      8  C   UNL     1      49.660  51.433  18.256  1.00  0.00    +0.004 C 
ENDBRANCH   5   7
ENDBRANCH   3   5
ENDBRANCH   1   3
BRANCH   1   9
ATOM      9  C   UNL     1      50.133  55.830  20.869  1.00  0.00    +0.059 A 
ATOM     10  C   UNL     1      48.911  55.784  20.191  1.00  0.00    +0.028 A 
ATOM     11  C   UNL     1      50.350  56.930  21.732  1.00  0.00    +0.072 A 
ATOM     12  C   UNL     1      47.984  56.828  20.304  1.00  0.00    +0.002 A 
ATOM     13  C   UNL     1      49.442  57.984  21.832  1.00  0.00    +0.029 A 
ATOM     14  C   UNL     1      48.254  57.932  21.113  1.00  0.00    +0.002 A 
BRANCH  11  15
ATOM     15  N   UNL     1      51.565  56.979  22.509  1.00  0.00    -0.282 N 
ATOM     16  H   UNL     1      51.770  56.014  22.795  1.00  0.00    +0.180 HD
BRANCH  15  17
ATOM     17  S   UNL     1      52.903  57.562  21.641  1.00  0.00    +0.229 S 
ATOM     18  O   UNL     1      52.773  57.220  20.242  1.00  0.00    -0.207 OA
ATOM     19  O   UNL     1      54.074  57.195  22.413  1.00  0.00    -0.207 OA
ATOM     20  C   UNL     1      52.644  59.312  21.802  1.00  0.00    +0.183 C 
ENDBRANCH  15  17
ENDBRANCH  11  15
ENDBRANCH   1   9
TORSDOF 6
ENDMDL
MODEL 3
REMARK VINA RESULT:    -6.555      5.761      7.863
REMARK INTER + INTRA:          -9.604
REMARK INTER:                  -9.089
REMARK INTRA:                  -0.515
REMARK UNBOUND:                -0.750
REMARK SMILES CC[C@@H](C)[C@H](C)Nc1ccccc1NS(C)(=O)=O
REMARK SMILES IDX 7 1 5 3 6 4 3 5 4 6 2 7 1 8 8 9 9 10 13 11 10 12 12 13 11 14
REMARK SMILES IDX 14 15 15 17 17 18 18 19 16 20
REMARK H PARENT 7 2 14 16
ROOT
ATOM      1  N   UNL     1      49.003  50.078  16.805  1.00  0.00    -0.381 N 
ATOM      2  H   UNL     1      49.749  49.937  16.109  1.00  0.00    +0.160 HD
ENDROOT
BRANCH   1   3
ATOM      3  C   UNL     1      47.768  49.385  16.388  1.00  0.00    +0.079 C 
ATOM      4  C   UNL     1      48.177  47.986  15.899  1.00  0.00    +0.031 C 
BRANCH   3   5
ATOM      5  C   UNL     1      46.755  49.375  17.572  1.00  0.00    +0.008 C 
ATOM      6  C   UNL     1      47.237  48.585  18.794  1.00  0.00    +0.010 C 
BRANCH   5   7
ATOM      7  C   UNL     1      45.328  48.958  17.152  1.00  0.00    +0.002 C 
ATOM      8  C   UNL     1      44.621  47.955  18.050  1.00  0.00    +0.004 C 
ENDBRANCH   5   7
ENDBRANCH   3   5
ENDBRANCH   1   3
BRANCH   1   9
ATOM      9  C   UNL     1      48.996  51.448  17.150  1.00  0.00    +0.059 A 
ATOM     10  C   UNL     1      48.222  52.424  16.514  1.00  0.00    +0.028 A 
ATOM     11  C   UNL     1      49.759  51.859  18.270  1.00  0.00    +0.072 A 
ATOM     12  C   UNL     1      48.272  53.763  16.923  1.00  0.00    +0.002 A 
ATOM     13  C   UNL     1      49.831  53.194  18.668  1.00  0.00    +0.029 A 
ATOM     14  C   UNL     1      49.084  54.149  17.989  1.00  0.00    +0.002 A 
BRANCH  11  15
ATOM     15  N   UNL     1      50.512  50.870  19.002  1.00  0.00    -0.282 N 
ATOM     16  H   UNL     1      50.344  49.969  18.538  1.00  0.00    +0.180 HD
BRANCH  15  17
ATOM     17  S   UNL     1      52.187  51.154  19.000  1.00  0.00    +0.229 S 
ATOM     18  O   UNL     1      52.504  52.257  19.880  1.00  0.00    -0.207 OA
ATOM     19  O   UNL     1      52.595  51.142  17.609  1.00  0.00    -0.207 OA
ATOM     20  C   UNL     1      52.760  49.659  19.771  1.00  0.00    +0.183 C 
ENDBRANCH  15  17
ENDBRANCH  11  15
ENDBRANCH   1   9
TORSDOF 6
ENDMDL
MODEL 4
REMARK VINA RESULT:    -6.504      3.820      5.344
REMARK INTER + INTRA:          -9.536
REMARK INTER:                  -8.798
REMARK INTRA:                  -0.738
REMARK UNBOUND:                -0.750
REMARK SMILES CC[C@@H](C)[C@H](C)Nc1ccccc1NS(C)(=O)=O
REMARK SMILES IDX 7 1 5 3 6 4 3 5 4 6 2 7 1 8 8 9 9 10 13 11 10 12 12 13 11 14
REMARK SMILES IDX 14 15 15 17 17 18 18 19 16 20
REMARK H PARENT 7 2 14 16
ROOT
ATOM      1  N   UNL     1      50.268  54.188  19.111  1.00  0.00    -0.381 N 
ATOM      2  H   UNL     1      51.140  53.653  19.235  1.00  0.00    +0.160 HD
ENDROOT
BRANCH   1   3
ATOM      3  C   UNL     1      49.790  54.703  20.410  1.00  0.00    +0.079 C 
ATOM      4  C   UNL     1      50.834  54.307  21.467  1.00  0.00    +0.031 C 
BRANCH   3   5
ATOM      5  C   UNL     1      49.547  56.239  20.299  1.00  0.00    +0.008 C 
ATOM      6  C   UNL     1      50.156  57.048  21.451  1.00  0.00    +0.010 C 
BRANCH   5   7
ATOM      7  C   UNL     1      48.066  56.608  20.066  1.00  0.00    +0.002 C 
ATOM      8  C   UNL     1      47.568  57.878  20.737  1.00  0.00    +0.004 C 
ENDBRANCH   5   7
ENDBRANCH   3   5
ENDBRANCH   1   3
BRANCH   1   9
ATOM      9  C   UNL     1      49.424  53.439  18.262  1.00  0.00    +0.059 A 
ATOM     10  C   UNL     1      48.557  53.991  17.314  1.00  0.00    +0.028 A 
ATOM     11  C   UNL     1      49.516  52.027  18.306  1.00  0.00    +0.072 A 
ATOM     12  C   UNL     1      47.756  53.174  16.507  1.00  0.00    +0.002 A 
ATOM     13  C   UNL     1      48.704  51.207  17.522  1.00  0.00    +0.029 A 
ATOM     14  C   UNL     1      47.820  51.786  16.619  1.00  0.00    +0.002 A 
BRANCH  11  15
ATOM     15  N   UNL     1      50.454  51.416  19.216  1.00  0.00    -0.282 N 
ATOM     16  H   UNL     1      50.128  50.454  19.373  1.00  0.00    +0.180 HD
BRANCH  15  17
ATOM     17  S   UNL     1      52.038  51.337  18.605  1.00  0.00    +0.229 S 
ATOM     18  O   UNL     1      52.754  52.551  18.927  1.00  0.00    -0.207 OA
ATOM     19  O   UNL     1      51.919  50.856  17.243  1.00  0.00    -0.207 OA
ATOM     20  C   UNL     1      52.698  50.030  19.612  1.00  0.00    +0.183 C 
ENDBRANCH  15  17
ENDBRANCH  11  15
ENDBRANCH   1   9
TORSDOF 6
ENDMDL
MODEL 5
REMARK VINA RESULT:    -6.149      4.347      6.039
REMARK INTER + INTRA:          -9.056
REMARK INTER:                  -8.354
REMARK INTRA:                  -0.702
REMARK UNBOUND:                -0.750
REMARK SMILES CC[C@@H](C)[C@H](C)Nc1ccccc1NS(C)(=O)=O
REMARK SMILES IDX 7 1 5 3 6 4 3 5 4 6 2 7 1 8 8 9 9 10 13 11 10 12 12 13 11 14
REMARK SMILES IDX 14 15 15 17 17 18 18 19 16 20
REMARK H PARENT 7 2 14 16
ROOT
ATOM      1  N   UNL     1      49.525  51.831  17.482  1.00  0.00    -0.381 N 
ATOM      2  H   UNL     1      50.036  52.718  17.369  1.00  0.00    +0.160 HD
ENDROOT
BRANCH   1   3
ATOM      3  C   UNL     1      48.079  52.037  17.264  1.00  0.00    +0.079 C 
ATOM      4  C   UNL     1      47.914  53.406  16.584  1.00  0.00    +0.031 C 
BRANCH   3   5
ATOM      5  C   UNL     1      47.505  50.845  16.441  1.00  0.00    +0.008 C 
ATOM      6  C   UNL     1      46.847  49.758  17.300  1.00  0.00    +0.010 C 
BRANCH   5   7
ATOM      7  C   UNL     1      48.521  50.245  15.444  1.00  0.00    +0.002 C 
ATOM      8  C   UNL     1      48.764  48.747  15.540  1.00  0.00    +0.004 C 
ENDBRANCH   5   7
ENDBRANCH   3   5
ENDBRANCH   1   3
BRANCH   1   9
ATOM      9  C   UNL     1      50.009  51.206  18.652  1.00  0.00    +0.059 A 
ATOM     10  C   UNL     1      50.159  49.825  18.811  1.00  0.00    +0.028 A 
ATOM     11  C   UNL     1      50.455  52.029  19.714  1.00  0.00    +0.072 A 
ATOM     12  C   UNL     1      50.653  49.286  20.006  1.00  0.00    +0.002 A 
ATOM     13  C   UNL     1      50.926  51.499  20.915  1.00  0.00    +0.029 A 
ATOM     14  C   UNL     1      51.024  50.120  21.060  1.00  0.00    +0.002 A 
BRANCH  11  15
ATOM     15  N   UNL     1      50.390  53.462  19.562  1.00  0.00    -0.282 N 
ATOM     16  H   UNL     1      49.870  53.821  20.372  1.00  0.00    +0.180 HD
BRANCH  15  17
ATOM     17  S   UNL     1      51.913  54.213  19.544  1.00  0.00    +0.229 S 
ATOM     18  O   UNL     1      52.738  53.637  18.506  1.00  0.00    -0.207 OA
ATOM     19  O   UNL     1      52.349  54.269  20.925  1.00  0.00    -0.207 OA
ATOM     20  C   UNL     1      51.450  55.850  19.029  1.00  0.00    +0.183 C 
ENDBRANCH  15  17
ENDBRANCH  11  15
ENDBRANCH   1   9
TORSDOF 6
ENDMDL
