MODEL 1
REMARK VINA RESULT:    -7.921      0.000      0.000
REMARK INTER + INTRA:         -11.339
REMARK INTER:                 -10.468
REMARK INTRA:                  -0.871
REMARK UNBOUND:                -0.871
REMARK SMILES CO[C@H]1CCCC[C@@H]1[NH2+][C@@H](C)c1ccc(S(N)(=O)=O)cc1
REMARK SMILES IDX 11 1 10 2 12 3 13 4 21 5 14 6 20 7 15 8 16 9 18 10 19 11
REMARK SMILES IDX 17 12 9 15 8 18 7 19 3 20 6 21 4 22 5 23 2 24 1 25
REMARK H PARENT 17 13 17 14 9 16 9 17
ROOT
ATOM      1  C   UNL     1      52.729  49.688  19.877  1.00  0.00    +0.081 C 
ATOM      2  C   UNL     1      51.477  50.523  19.628  1.00  0.00    +0.210 C 
ENDROOT
BRANCH   2   3
ATOM      3  C   UNL     1      51.663  51.992  19.980  1.00  0.00    +0.009 A 
ATOM      4  C   UNL     1      51.285  52.446  21.258  1.00  0.00    +0.011 A 
ATOM      5  C   UNL     1      52.176  52.925  19.060  1.00  0.00    +0.011 A 
ATOM      6  C   UNL     1      51.449  53.785  21.620  1.00  0.00    +0.022 A 
ATOM      7  C   UNL     1      52.342  54.266  19.419  1.00  0.00    +0.022 A 
ATOM      8  C   UNL     1      51.978  54.690  20.697  1.00  0.00    +0.082 A 
BRANCH   8   9
ATOM      9  S   UNL     1      52.274  56.369  21.199  1.00  0.00    +0.238 S 
ATOM     10  O   UNL     1      51.092  57.140  20.895  1.00  0.00    -0.207 OA
ATOM     11  O   UNL     1      53.592  56.738  20.744  1.00  0.00    -0.207 OA
BRANCH   9  12
ATOM     12  N   UNL     1      52.314  56.230  22.873  1.00  0.00    -0.225 NA
ATOM     13  H   UNL     1      52.732  57.072  23.272  1.00  0.00    +0.137 HD
ATOM     14  H   UNL     1      51.422  55.995  23.304  1.00  0.00    +0.137 HD
ENDBRANCH   9  12
ENDBRANCH   8   9
ENDBRANCH   2   3
BRANCH   2  15
ATOM     15  N   UNL     1      51.022  50.422  18.200  1.00  0.00    -0.336 N 
ATOM     16  H   UNL     1      51.709  49.896  17.648  1.00  0.00    +0.347 HD
ATOM     17  H   UNL     1      51.086  51.393  17.857  1.00  0.00    +0.347 HD
BRANCH  15  18
ATOM     18  C   UNL     1      49.620  50.016  17.829  1.00  0.00    +0.212 C 
ATOM     19  C   UNL     1      49.136  48.793  18.609  1.00  0.00    +0.068 C 
ATOM     20  C   UNL     1      48.643  51.206  17.852  1.00  0.00    +0.175 C 
ATOM     21  C   UNL     1      47.613  48.774  18.765  1.00  0.00    +0.006 C 
ATOM     22  C   UNL     1      47.296  50.789  17.242  1.00  0.00    +0.038 C 
ATOM     23  C   UNL     1      46.910  49.335  17.534  1.00  0.00    +0.003 C 
BRANCH  20  24
ATOM     24  O   UNL     1      49.268  52.275  17.124  1.00  0.00    -0.375 OA
ATOM     25  C   UNL     1      48.895  53.573  17.589  1.00  0.00    +0.195 C 
ENDBRANCH  20  24
ENDBRANCH  15  18
ENDBRANCH   2  15
TORSDOF 6
ENDMDL
MODEL 2
REMARK VINA RESULT:    -7.342      1.327      1.666
REMARK INTER + INTRA:         -10.574
REMARK INTER:                  -9.977
REMARK INTRA:                  -0.597
REMARK UNBOUND:                -0.871
REMARK SMILES CO[C@H]1CCCC[C@@H]1[NH2+][C@@H](C)c1ccc(S(N)(=O)=O)cc1
REMARK SMILES IDX 11 1 10 2 12 3 13 4 21 5 14 6 20 7 15 8 16 9 18 10 19 11
REMARK SMILES IDX 17 12 9 15 8 18 7 19 3 20 6 21 4 22 5 23 2 24 1 25
REMARK H PARENT 17 13 17 14 9 16 9 17
ROOT
ATOM      1  C   UNL     1      52.748  49.758  19.688  1.00  0.00    +0.081 C 
ATOM      2  C   UNL     1      51.438  50.532  19.580  1.00  0.00    +0.210 C 
ENDROOT
BRANCH   2   3
ATOM      3  C   UNL     1      51.556  51.972  20.061  1.00  0.00    +0.009 A 
ATOM      4  C   UNL     1      51.354  52.259  21.424  1.00  0.00    +0.011 A 
ATOM      5  C   UNL     1      51.834  53.035  19.183  1.00  0.00    +0.011 A 
ATOM      6  C   UNL     1      51.463  53.567  21.904  1.00  0.00    +0.022 A 
ATOM      7  C   UNL     1      51.944  54.345  19.659  1.00  0.00    +0.022 A 
ATOM      8  C   UNL     1      51.758  54.605  21.017  1.00  0.00    +0.082 A 
BRANCH   8   9
ATOM      9  S   UNL     1      51.991  56.249  21.652  1.00  0.00    +0.238 S 
ATOM     10  O   UNL     1      50.761  56.979  21.459  1.00  0.00    -0.207 OA
ATOM     11  O   UNL     1      53.269  56.724  21.182  1.00  0.00    -0.207 OA
BRANCH   9  12
ATOM     12  N   UNL     1      52.107  55.970  23.304  1.00  0.00    -0.225 NA
ATOM     13  H   UNL     1      51.422  56.550  23.793  1.00  0.00    +0.137 HD
ATOM     14  H   UNL     1      52.054  54.992  23.578  1.00  0.00    +0.137 HD
ENDBRANCH   9  12
ENDBRANCH   8   9
ENDBRANCH   2   3
BRANCH   2  15
ATOM     15  N   UNL     1      50.913  50.534  18.172  1.00  0.00    -0.336 N 
ATOM     16  H   UNL     1      51.692  50.590  17.507  1.00  0.00    +0.347 HD
ATOM     17  H   UNL     1      50.427  51.441  18.098  1.00  0.00    +0.347 HD
BRANCH  15  18
ATOM     18  C   UNL     1      49.878  49.547  17.698  1.00  0.00    +0.212 C 
ATOM     19  C   UNL     1      48.792  49.287  18.742  1.00  0.00    +0.068 C 
ATOM     20  C   UNL     1      49.338  49.896  16.299  1.00  0.00    +0.175 C 
ATOM     21  C   UNL     1      47.465  48.873  18.103  1.00  0.00    +0.006 C 
ATOM     22  C   UNL     1      48.474  48.741  15.769  1.00  0.00    +0.038 C 
ATOM     23  C   UNL     1      47.676  48.017  16.859  1.00  0.00    +0.003 C 
BRANCH  20  24
ATOM     24  O   UNL     1      50.477  50.158  15.463  1.00  0.00    -0.375 OA
ATOM     25  C   UNL     1      50.493  49.381  14.265  1.00  0.00    +0.195 C 
ENDBRANCH  20  24
ENDBRANCH  15  18
ENDBRANCH   2  15
TORSDOF 6
ENDMDL
MODEL 3
REMARK VINA RESULT:    -7.333      2.334      3.827
REMARK INTER + INTRA:         -10.561
REMARK INTER:                  -9.837
REMARK INTRA:                  -0.724
REMARK UNBOUND:                -0.871
REMARK SMILES CO[C@H]1CCCC[C@@H]1[NH2+][C@@H](C)c1ccc(S(N)(=O)=O)cc1
REMARK SMILES IDX 11 1 10 2 12 3 13 4 21 5 14 6 20 7 15 8 16 9 18 10 19 11
REMARK SMILES IDX 17 12 9 15 8 18 7 19 3 20 6 21 4 22 5 23 2 24 1 25
REMARK H PARENT 17 13 17 14 9 16 9 17
ROOT
ATOM      1  C   UNL     1      47.979  54.941  19.897  1.00  0.00    +0.081 C 
ATOM      2  C   UNL     1      49.047  55.485  18.954  1.00  0.00    +0.210 C 
ENDROOT
BRANCH   2   3
ATOM      3  C   UNL     1      50.205  56.148  19.686  1.00  0.00    +0.009 A 
ATOM      4  C   UNL     1      51.522  55.898  19.258  1.00  0.00    +0.011 A 
ATOM      5  C   UNL     1      50.007  56.986  20.799  1.00  0.00    +0.011 A 
ATOM      6  C   UNL     1      52.610  56.495  19.900  1.00  0.00    +0.022 A 
ATOM      7  C   UNL     1      51.092  57.586  21.444  1.00  0.00    +0.022 A 
ATOM      8  C   UNL     1      52.389  57.338  20.992  1.00  0.00    +0.082 A 
BRANCH   8   9
ATOM      9  S   UNL     1      53.770  58.171  21.739  1.00  0.00    +0.238 S 
ATOM     10  O   UNL     1      54.592  58.707  20.680  1.00  0.00    -0.207 OA
ATOM     11  O   UNL     1      54.287  57.317  22.780  1.00  0.00    -0.207 OA
BRANCH   9  12
ATOM     12  N   UNL     1      53.029  59.494  22.461  1.00  0.00    -0.225 NA
ATOM     13  H   UNL     1      53.312  59.546  23.442  1.00  0.00    +0.137 HD
ATOM     14  H   UNL     1      53.157  60.376  21.971  1.00  0.00    +0.137 HD
ENDBRANCH   9  12
ENDBRANCH   8   9
ENDBRANCH   2   3
BRANCH   2  15
ATOM     15  N   UNL     1      49.592  54.409  18.058  1.00  0.00    -0.336 N 
ATOM     16  H   UNL     1      50.613  54.363  18.147  1.00  0.00    +0.347 HD
ATOM     17  H   UNL     1      49.419  54.775  17.109  1.00  0.00    +0.347 HD
BRANCH  15  18
ATOM     18  C   UNL     1      48.999  53.026  18.009  1.00  0.00    +0.212 C 
ATOM     19  C   UNL     1      47.989  52.860  16.872  1.00  0.00    +0.068 C 
ATOM     20  C   UNL     1      50.076  51.927  18.062  1.00  0.00    +0.175 C 
ATOM     21  C   UNL     1      47.895  51.410  16.391  1.00  0.00    +0.006 C 
ATOM     22  C   UNL     1      49.412  50.554  18.248  1.00  0.00    +0.038 C 
ATOM     23  C   UNL     1      48.060  50.420  17.538  1.00  0.00    +0.003 C 
BRANCH  20  24
ATOM     24  O   UNL     1      50.961  52.260  19.143  1.00  0.00    -0.375 OA
ATOM     25  C   UNL     1      50.845  51.382  20.263  1.00  0.00    +0.195 C 
ENDBRANCH  20  24
ENDBRANCH  15  18
ENDBRANCH   2  15
TORSDOF 6
ENDMDL
MODEL 4
REMARK VINA RESULT:    -7.188      4.283      8.000
REMARK INTER + INTRA:         -10.370
REMARK INTER:                  -9.511
REMARK INTRA:                  -0.859
REMARK UNBOUND:                -0.871
REMARK SMILES CO[C@H]1CCCC[C@@H]1[NH2+][C@@H](C)c1ccc(S(N)(=O)=O)cc1
REMARK SMILES IDX 11 1 10 2 12 3 13 4 21 5 14 6 20 7 15 8 16 9 18 10 19 11
REMARK SMILES IDX 17 12 9 15 8 18 7 19 3 20 6 21 4 22 5 23 2 24 1 25
REMARK H PARENT 17 13 17 14 9 16 9 17
ROOT
ATOM      1  C   UNL     1      47.740  53.244  16.236  1.00  0.00    +0.081 C 
ATOM      2  C   UNL     1      48.139  52.162  17.234  1.00  0.00    +0.210 C 
ENDROOT
BRANCH   2   3
ATOM      3  C   UNL     1      47.534  50.803  16.911  1.00  0.00    +0.009 A 
ATOM      4  C   UNL     1      48.114  50.016  15.898  1.00  0.00    +0.011 A 
ATOM      5  C   UNL     1      46.392  50.314  17.573  1.00  0.00    +0.011 A 
ATOM      6  C   UNL     1      47.592  48.760  15.580  1.00  0.00    +0.022 A 
ATOM      7  C   UNL     1      45.867  49.058  17.258  1.00  0.00    +0.022 A 
ATOM      8  C   UNL     1      46.469  48.286  16.263  1.00  0.00    +0.082 A 
BRANCH   8   9
ATOM      9  S   UNL     1      45.871  46.647  15.921  1.00  0.00    +0.238 S 
ATOM     10  O   UNL     1      46.842  45.706  16.426  1.00  0.00    -0.207 OA
ATOM     11  O   UNL     1      45.393  46.629  14.560  1.00  0.00    -0.207 OA
BRANCH   9  12
ATOM     12  N   UNL     1      44.547  46.538  16.948  1.00  0.00    -0.225 NA
ATOM     13  H   UNL     1      44.596  45.661  17.470  1.00  0.00    +0.137 HD
ATOM     14  H   UNL     1      44.407  47.344  17.553  1.00  0.00    +0.137 HD
ENDBRANCH   9  12
ENDBRANCH   8   9
ENDBRANCH   2   3
BRANCH   2  15
ATOM     15  N   UNL     1      49.632  52.019  17.324  1.00  0.00    -0.336 N 
ATOM     16  H   UNL     1      50.077  52.467  16.515  1.00  0.00    +0.347 HD
ATOM     17  H   UNL     1      49.785  51.007  17.192  1.00  0.00    +0.347 HD
BRANCH  15  18
ATOM     18  C   UNL     1      50.395  52.321  18.587  1.00  0.00    +0.212 C 
ATOM     19  C   UNL     1      50.025  53.679  19.186  1.00  0.00    +0.068 C 
ATOM     20  C   UNL     1      50.349  51.154  19.590  1.00  0.00    +0.175 C 
ATOM     21  C   UNL     1      50.234  53.716  20.702  1.00  0.00    +0.006 C 
ATOM     22  C   UNL     1      51.328  51.418  20.743  1.00  0.00    +0.038 C 
ATOM     23  C   UNL     1      51.447  52.897  21.128  1.00  0.00    +0.003 C 
BRANCH  20  24
ATOM     24  O   UNL     1      50.669  49.960  18.859  1.00  0.00    -0.375 OA
ATOM     25  C   UNL     1      49.754  48.889  19.092  1.00  0.00    +0.195 C 
ENDBRANCH  20  24
ENDBRANCH  15  18
ENDBRANCH   2  15
TORSDOF 6
ENDMDL
MODEL 5
REMARK VINA RESULT:    -7.154      3.543      7.021
REMARK INTER + INTRA:         -10.325
REMARK INTER:                  -9.617
REMARK INTRA:                  -0.708
REMARK UNBOUND:                -0.871
REMARK SMILES CO[C@H]1CCCC[C@@H]1[NH2+][C@@H](C)c1ccc(S(N)(=O)=O)cc1
REMARK SMILES IDX 11 1 10 2 12 3 13 4 21 5 14 6 20 7 15 8 16 9 18 10 19 11
REMARK SMILES IDX 17 12 9 15 8 18 7 19 3 20 6 21 4 22 5 23 2 24 1 25
REMARK H PARENT 17 13 17 14 9 16 9 17
ROOT
ATOM      1  C   UNL     1      52.477  52.901  18.749  1.00  0.00    +0.081 C 
ATOM      2  C   UNL     1      51.015  53.333  18.715  1.00  0.00    +0.210 C 
ENDROOT
BRANCH   2   3
ATOM      3  C   UNL     1      50.062  52.185  18.414  1.00  0.00    +0.009 A 
ATOM      4  C   UNL     1      50.323  50.914  18.960  1.00  0.00    +0.011 A 
ATOM      5  C   UNL     1      48.939  52.341  17.581  1.00  0.00    +0.011 A 
ATOM      6  C   UNL     1      49.467  49.839  18.713  1.00  0.00    +0.022 A 
ATOM      7  C   UNL     1      48.079  51.267  17.332  1.00  0.00    +0.022 A 
ATOM      8  C   UNL     1      48.347  50.021  17.898  1.00  0.00    +0.082 A 
BRANCH   8   9
ATOM      9  S   UNL     1      47.210  48.673  17.670  1.00  0.00    +0.238 S 
ATOM     10  O   UNL     1      46.348  49.002  16.560  1.00  0.00    -0.207 OA
ATOM     11  O   UNL     1      46.711  48.295  18.969  1.00  0.00    -0.207 OA
BRANCH   9  12
ATOM     12  N   UNL     1      48.224  47.453  17.118  1.00  0.00    -0.225 NA
ATOM     13  H   UNL     1      47.752  46.930  16.379  1.00  0.00    +0.137 HD
ATOM     14  H   UNL     1      49.154  47.761  16.844  1.00  0.00    +0.137 HD
ENDBRANCH   9  12
ENDBRANCH   8   9
ENDBRANCH   2   3
BRANCH   2  15
ATOM     15  N   UNL     1      50.600  53.980  20.005  1.00  0.00    -0.336 N 
ATOM     16  H   UNL     1      51.320  53.829  20.721  1.00  0.00    +0.347 HD
ATOM     17  H   UNL     1      49.792  53.415  20.309  1.00  0.00    +0.347 HD
BRANCH  15  18
ATOM     18  C   UNL     1      50.078  55.392  20.067  1.00  0.00    +0.212 C 
ATOM     19  C   UNL     1      48.596  55.486  19.702  1.00  0.00    +0.068 C 
ATOM     20  C   UNL     1      50.449  56.094  21.386  1.00  0.00    +0.175 C 
ATOM     21  C   UNL     1      47.911  56.681  20.370  1.00  0.00    +0.006 C 
ATOM     22  C   UNL     1      50.102  57.588  21.297  1.00  0.00    +0.038 C 
ATOM     23  C   UNL     1      48.843  57.883  20.474  1.00  0.00    +0.003 C 
BRANCH  20  24
ATOM     24  O   UNL     1      51.851  55.867  21.602  1.00  0.00    -0.375 OA
ATOM     25  C   UNL     1      52.690  56.746  20.851  1.00  0.00    +0.195 C 
ENDBRANCH  20  24
ENDBRANCH  15  18
ENDBRANCH   2  15
TORSDOF 6
ENDMDL
