MODEL 1
REMARK VINA RESULT:    -7.673      0.000      0.000
REMARK INTER + INTRA:          -9.865
REMARK INTER:                  -9.467
REMARK INTRA:                  -0.398
REMARK UNBOUND:                -0.398
REMARK SMILES CNC(=O)Nc1ccc(NCc2ccc(Cl)o2)cc1
REMARK SMILES IDX 10 1 9 3 6 4 7 5 19 6 8 7 18 8 5 9 2 10 3 11 4 12 1 13 11 16
REMARK SMILES IDX 12 17 13 18 17 19 14 20 15 21 16 22
REMARK H PARENT 10 2 2 14 5 15
ROOT
ATOM      1  N   UNL     1      50.526  50.518  19.934  1.00  0.00    -0.378 N 
ATOM      2  H   UNL     1      51.224  49.852  20.263  1.00  0.00    +0.161 HD
ENDROOT
BRANCH   1   3
ATOM      3  C   UNL     1      50.714  51.784  20.495  1.00  0.00    +0.034 A 
ATOM      4  C   UNL     1      51.182  54.423  21.437  1.00  0.00    +0.043 A 
ATOM      5  C   UNL     1      51.661  53.321  22.140  1.00  0.00    +0.028 A 
ATOM      6  C   UNL     1      50.484  54.204  20.249  1.00  0.00    +0.028 A 
ATOM      7  C   UNL     1      51.443  52.019  21.662  1.00  0.00    +0.028 A 
ATOM      8  C   UNL     1      50.268  52.902  19.779  1.00  0.00    +0.028 A 
BRANCH   4   9
ATOM      9  N   UNL     1      51.351  55.758  21.856  1.00  0.00    -0.308 N 
ATOM     10  N   UNL     1      52.213  57.830  22.173  1.00  0.00    -0.341 N 
ATOM     11  C   UNL     1      52.333  56.644  21.470  1.00  0.00    +0.318 C 
ATOM     12  O   UNL     1      53.200  56.464  20.627  1.00  0.00    -0.249 OA
ATOM     13  C   UNL     1      53.182  58.877  21.954  1.00  0.00    +0.144 C 
ATOM     14  H   UNL     1      51.882  57.726  23.120  1.00  0.00    +0.165 HD
ATOM     15  H   UNL     1      50.596  56.161  22.388  1.00  0.00    +0.171 HD
ENDBRANCH   4   9
ENDBRANCH   1   3
BRANCH   1  16
ATOM     16  C   UNL     1      50.317  50.389  18.495  1.00  0.00    +0.188 C 
BRANCH  16  17
ATOM     17  C   UNL     1      48.897  50.096  18.143  1.00  0.00    +0.125 A 
ATOM     18  C   UNL     1      47.987  50.690  17.294  1.00  0.00    +0.049 A 
ATOM     19  O   UNL     1      48.317  49.037  18.781  1.00  0.00    -0.448 OA
ATOM     20  C   UNL     1      46.787  49.948  17.416  1.00  0.00    +0.064 A 
ATOM     21  C   UNL     1      47.033  48.950  18.334  1.00  0.00    +0.193 A 
ATOM     22 Cl   UNL     1      45.926  47.753  18.872  1.00  0.00    -0.043 Cl
ENDBRANCH  16  17
ENDBRANCH   1  16
TORSDOF 4
ENDMDL
MODEL 2
REMARK VINA RESULT:    -7.582      1.805      2.027
REMARK INTER + INTRA:          -9.753
REMARK INTER:                  -9.299
REMARK INTRA:                  -0.454
REMARK UNBOUND:                -0.398
REMARK SMILES CNC(=O)Nc1ccc(NCc2ccc(Cl)o2)cc1
REMARK SMILES IDX 10 1 9 3 6 4 7 5 19 6 8 7 18 8 5 9 2 10 3 11 4 12 1 13 11 16
REMARK SMILES IDX 12 17 13 18 17 19 14 20 15 21 16 22
REMARK H PARENT 10 2 2 14 5 15
ROOT
ATOM      1  N   UNL     1      50.235  50.035  17.836  1.00  0.00    -0.378 N 
ATOM      2  H   UNL     1      49.791  50.110  16.922  1.00  0.00    +0.161 HD
ENDROOT
BRANCH   1   3
ATOM      3  C   UNL     1      50.795  51.249  18.241  1.00  0.00    +0.034 A 
ATOM      4  C   UNL     1      51.818  53.817  18.898  1.00  0.00    +0.043 A 
ATOM      5  C   UNL     1      52.677  52.743  18.679  1.00  0.00    +0.028 A 
ATOM      6  C   UNL     1      50.444  53.609  18.769  1.00  0.00    +0.028 A 
ATOM      7  C   UNL     1      52.169  51.480  18.337  1.00  0.00    +0.028 A 
ATOM      8  C   UNL     1      49.944  52.345  18.430  1.00  0.00    +0.028 A 
BRANCH   4   9
ATOM      9  N   UNL     1      52.249  55.110  19.254  1.00  0.00    -0.308 N 
ATOM     10  N   UNL     1      52.725  56.977  20.449  1.00  0.00    -0.341 N 
ATOM     11  C   UNL     1      52.352  55.645  20.519  1.00  0.00    +0.318 C 
ATOM     12  O   UNL     1      52.164  55.070  21.582  1.00  0.00    -0.249 OA
ATOM     13  C   UNL     1      52.838  57.740  21.669  1.00  0.00    +0.144 C 
ATOM     14  H   UNL     1      52.362  57.473  19.650  1.00  0.00    +0.165 HD
ATOM     15  H   UNL     1      52.662  55.664  18.520  1.00  0.00    +0.171 HD
ENDBRANCH   4   9
ENDBRANCH   1   3
BRANCH   1  16
ATOM     16  C   UNL     1      49.398  49.280  18.765  1.00  0.00    +0.188 C 
BRANCH  16  17
ATOM     17  C   UNL     1      47.978  49.188  18.316  1.00  0.00    +0.125 A 
ATOM     18  C   UNL     1      47.243  49.845  17.352  1.00  0.00    +0.049 A 
ATOM     19  O   UNL     1      47.186  48.293  18.977  1.00  0.00    -0.448 OA
ATOM     20  C   UNL     1      45.930  49.317  17.425  1.00  0.00    +0.064 A 
ATOM     21  C   UNL     1      45.941  48.374  18.430  1.00  0.00    +0.193 A 
ATOM     22 Cl   UNL     1      44.615  47.419  18.958  1.00  0.00    -0.043 Cl
ENDBRANCH  16  17
ENDBRANCH   1  16
TORSDOF 4
ENDMDL
MODEL 3
REMARK VINA RESULT:    -7.356      3.052      7.498
REMARK INTER + INTRA:          -9.474
REMARK INTER:                  -9.016
REMARK INTRA:                  -0.458
REMARK UNBOUND:                -0.398
REMARK SMILES CNC(=O)Nc1ccc(NCc2ccc(Cl)o2)cc1
REMARK SMILES IDX 10 1 9 3 6 4 7 5 19 6 8 7 18 8 5 9 2 10 3 11 4 12 1 13 11 16
REMARK SMILES IDX 12 17 13 18 17 19 14 20 15 21 16 22
REMARK H PARENT 10 2 2 14 5 15
ROOT
ATOM      1  N   UNL     1      51.676  54.001  21.524  1.00  0.00    -0.378 N 
ATOM      2  H   UNL     1      51.051  54.114  22.320  1.00  0.00    +0.161 HD
ENDROOT
BRANCH   1   3
ATOM      3  C   UNL     1      51.398  52.834  20.807  1.00  0.00    +0.034 A 
ATOM      4  C   UNL     1      50.646  50.564  19.274  1.00  0.00    +0.043 A 
ATOM      5  C   UNL     1      50.929  50.443  20.632  1.00  0.00    +0.028 A 
ATOM      6  C   UNL     1      50.721  51.828  18.687  1.00  0.00    +0.028 A 
ATOM      7  C   UNL     1      51.283  51.570  21.390  1.00  0.00    +0.028 A 
ATOM      8  C   UNL     1      51.077  52.948  19.449  1.00  0.00    +0.028 A 
BRANCH   4   9
ATOM      9  N   UNL     1      50.294  49.481  18.444  1.00  0.00    -0.308 N 
ATOM     10  N   UNL     1      49.097  47.898  17.349  1.00  0.00    -0.341 N 
ATOM     11  C   UNL     1      49.028  49.050  18.113  1.00  0.00    +0.318 C 
ATOM     12  O   UNL     1      47.967  49.577  18.414  1.00  0.00    -0.249 OA
ATOM     13  C   UNL     1      47.873  47.252  16.940  1.00  0.00    +0.144 C 
ATOM     14  H   UNL     1      49.863  47.285  17.582  1.00  0.00    +0.165 HD
ATOM     15  H   UNL     1      51.042  49.055  17.919  1.00  0.00    +0.171 HD
ENDBRANCH   4   9
ENDBRANCH   1   3
BRANCH   1  16
ATOM     16  C   UNL     1      51.849  55.263  20.811  1.00  0.00    +0.188 C 
BRANCH  16  17
ATOM     17  C   UNL     1      50.805  56.270  21.161  1.00  0.00    +0.125 A 
ATOM     18  C   UNL     1      50.752  57.304  22.073  1.00  0.00    +0.049 A 
ATOM     19  O   UNL     1      49.624  56.186  20.482  1.00  0.00    -0.448 OA
ATOM     20  C   UNL     1      49.469  57.888  21.936  1.00  0.00    +0.064 A 
ATOM     21  C   UNL     1      48.814  57.174  20.956  1.00  0.00    +0.193 A 
ATOM     22 Cl   UNL     1      47.218  57.443  20.380  1.00  0.00    -0.043 Cl
ENDBRANCH  16  17
ENDBRANCH   1  16
TORSDOF 4
ENDMDL
MODEL 4
REMARK VINA RESULT:    -7.173      3.683      8.204
REMARK INTER + INTRA:          -9.248
REMARK INTER:                  -8.849
REMARK INTRA:                  -0.399
REMARK UNBOUND:                -0.398
REMARK SMILES CNC(=O)Nc1ccc(NCc2ccc(Cl)o2)cc1
REMARK SMILES IDX 10 1 9 3 6 4 7 5 19 6 8 7 18 8 5 9 2 10 3 11 4 12 1 13 11 16
REMARK SMILES IDX 12 17 13 18 17 19 14 20 15 21 16 22
REMARK H PARENT 10 2 2 14 5 15
ROOT
ATOM      1  N   UNL     1      51.899  52.618  21.619  1.00  0.00    -0.378 N 
ATOM      2  H   UNL     1      52.340  52.137  22.401  1.00  0.00    +0.161 HD
ENDROOT
BRANCH   1   3
ATOM      3  C   UNL     1      51.244  51.726  20.765  1.00  0.00    +0.034 A 
ATOM      4  C   UNL     1      50.107  49.799  19.015  1.00  0.00    +0.043 A 
ATOM      5  C   UNL     1      50.015  51.160  18.732  1.00  0.00    +0.028 A 
ATOM      6  C   UNL     1      50.787  49.402  20.167  1.00  0.00    +0.028 A 
ATOM      7  C   UNL     1      50.593  52.108  19.590  1.00  0.00    +0.028 A 
ATOM      8  C   UNL     1      51.360  50.354  21.020  1.00  0.00    +0.028 A 
BRANCH   4   9
ATOM      9  N   UNL     1      49.545  48.788  18.210  1.00  0.00    -0.308 N 
ATOM     10  N   UNL     1      48.061  47.388  17.221  1.00  0.00    -0.341 N 
ATOM     11  C   UNL     1      48.209  48.521  18.003  1.00  0.00    +0.318 C 
ATOM     12  O   UNL     1      47.255  49.164  18.418  1.00  0.00    -0.249 OA
ATOM     13  C   UNL     1      46.733  46.905  16.930  1.00  0.00    +0.144 C 
ATOM     14  H   UNL     1      48.766  46.682  17.367  1.00  0.00    +0.165 HD
ATOM     15  H   UNL     1      50.180  48.289  17.606  1.00  0.00    +0.171 HD
ENDBRANCH   4   9
ENDBRANCH   1   3
BRANCH   1  16
ATOM     16  C   UNL     1      51.211  53.826  22.067  1.00  0.00    +0.188 C 
BRANCH  16  17
ATOM     17  C   UNL     1      51.761  55.066  21.446  1.00  0.00    +0.125 A 
ATOM     18  C   UNL     1      51.827  55.528  20.148  1.00  0.00    +0.049 A 
ATOM     19  O   UNL     1      52.354  55.960  22.290  1.00  0.00    -0.448 OA
ATOM     20  C   UNL     1      52.491  56.778  20.205  1.00  0.00    +0.064 A 
ATOM     21  C   UNL     1      52.795  57.001  21.530  1.00  0.00    +0.193 A 
ATOM     22 Cl   UNL     1      53.608  58.366  22.182  1.00  0.00    -0.043 Cl
ENDBRANCH  16  17
ENDBRANCH   1  16
TORSDOF 4
ENDMDL
MODEL 5
REMARK VINA RESULT:    -7.061      4.024      8.329
REMARK INTER + INTRA:          -9.110
REMARK INTER:                  -8.689
REMARK INTRA:                  -0.421
REMARK UNBOUND:                -0.398
REMARK SMILES CNC(=O)Nc1ccc(NCc2ccc(Cl)o2)cc1
REMARK SMILES IDX 10 1 9 3 6 4 7 5 19 6 8 7 18 8 5 9 2 10 3 11 4 12 1 13 11 16
REMARK SMILES IDX 12 17 13 18 17 19 14 20 15 21 16 22
REMARK H PARENT 10 2 2 14 5 15
ROOT
ATOM      1  N   UNL     1      50.463  53.308  18.403  1.00  0.00    -0.378 N 
ATOM      2  H   UNL     1      51.407  53.132  18.063  1.00  0.00    +0.161 HD
ENDROOT
BRANCH   1   3
ATOM      3  C   UNL     1      49.570  52.316  17.989  1.00  0.00    +0.034 A 
ATOM      4  C   UNL     1      47.587  50.431  17.222  1.00  0.00    +0.043 A 
ATOM      5  C   UNL     1      48.658  50.051  18.028  1.00  0.00    +0.028 A 
ATOM      6  C   UNL     1      47.500  51.763  16.815  1.00  0.00    +0.028 A 
ATOM      7  C   UNL     1      49.625  50.989  18.419  1.00  0.00    +0.028 A 
ATOM      8  C   UNL     1      48.470  52.693  17.208  1.00  0.00    +0.028 A 
BRANCH   4   9
ATOM      9  N   UNL     1      46.583  49.548  16.779  1.00  0.00    -0.308 N 
ATOM     10  N   UNL     1      45.407  48.063  15.534  1.00  0.00    -0.341 N 
ATOM     11  C   UNL     1      46.625  48.699  15.694  1.00  0.00    +0.318 C 
ATOM     12  O   UNL     1      47.577  48.493  14.955  1.00  0.00    -0.249 OA
ATOM     13  C   UNL     1      45.224  47.166  14.418  1.00  0.00    +0.144 C 
ATOM     14  H   UNL     1      44.605  48.619  15.789  1.00  0.00    +0.165 HD
ATOM     15  H   UNL     1      45.798  49.413  17.397  1.00  0.00    +0.171 HD
ENDBRANCH   4   9
ENDBRANCH   1   3
BRANCH   1  16
ATOM     16  C   UNL     1      50.479  53.728  19.801  1.00  0.00    +0.188 C 
BRANCH  16  17
ATOM     17  C   UNL     1      49.619  54.920  20.054  1.00  0.00    +0.125 A 
ATOM     18  C   UNL     1      48.423  55.358  19.524  1.00  0.00    +0.049 A 
ATOM     19  O   UNL     1      50.071  55.812  20.984  1.00  0.00    -0.448 OA
ATOM     20  C   UNL     1      48.125  56.582  20.173  1.00  0.00    +0.064 A 
ATOM     21  C   UNL     1      49.157  56.821  21.054  1.00  0.00    +0.193 A 
ATOM     22 Cl   UNL     1      49.321  58.170  22.104  1.00  0.00    -0.043 Cl
ENDBRANCH  16  17
ENDBRANCH   1  16
TORSDOF 4
ENDMDL
