MODEL 1
REMARK VINA RESULT:    -6.575      0.000      0.000
REMARK INTER + INTRA:          -9.444
REMARK INTER:                  -8.497
REMARK INTRA:                  -0.947
REMARK UNBOUND:                -0.947
REMARK SMILES NC(=O)CN(C(=O)[C@H]1CCC(=O)N1)[C@@H]1CC[NH2+]C1
REMARK SMILES IDX 5 1 6 2 7 3 8 4 9 5 10 6 11 7 13 8 12 9 4 11 2 12 3 13 1 14
REMARK SMILES IDX 14 17 15 18 18 19 16 20 17 21
REMARK H PARENT 13 10 1 15 1 16 17 22 17 23
ROOT
ATOM      1  N   UNL     1      50.488  53.924  19.739  1.00  0.00    -0.323 N 
ENDROOT
BRANCH   1   2
ATOM      2  C   UNL     1      49.822  55.157  19.811  1.00  0.00    +0.246 C 
ATOM      3  O   UNL     1      48.593  55.207  19.721  1.00  0.00    -0.272 OA
BRANCH   2   4
ATOM      4  C   UNL     1      50.624  56.450  20.002  1.00  0.00    +0.172 C 
ATOM      5  C   UNL     1      50.490  57.095  21.380  1.00  0.00    +0.045 C 
ATOM      6  C   UNL     1      51.783  57.892  21.522  1.00  0.00    +0.102 C 
ATOM      7  C   UNL     1      52.752  57.006  20.789  1.00  0.00    +0.220 C 
ATOM      8  N   UNL     1      52.045  56.246  19.874  1.00  0.00    -0.344 N 
ATOM      9  O   UNL     1      53.959  56.955  20.929  1.00  0.00    -0.275 OA
ATOM     10  H   UNL     1      52.482  55.357  19.649  1.00  0.00    +0.164 HD
ENDBRANCH   2   4
ENDBRANCH   1   2
BRANCH   1  11
ATOM     11  C   UNL     1      50.258  53.061  20.919  1.00  0.00    +0.219 C 
BRANCH  11  12
ATOM     12  C   UNL     1      51.500  53.032  21.819  1.00  0.00    +0.237 C 
ATOM     13  O   UNL     1      51.999  54.050  22.295  1.00  0.00    -0.273 OA
ATOM     14  N   UNL     1      51.982  51.796  22.131  1.00  0.00    -0.368 N 
ATOM     15  H   UNL     1      51.801  50.997  21.532  1.00  0.00    +0.159 HD
ATOM     16  H   UNL     1      52.851  51.765  22.652  1.00  0.00    +0.159 HD
ENDBRANCH  11  12
ENDBRANCH   1  11
BRANCH   1  17
ATOM     17  C   UNL     1      50.994  53.217  18.533  1.00  0.00    +0.146 C 
ATOM     18  C   UNL     1      50.352  51.869  18.200  1.00  0.00    +0.092 C 
ATOM     19  C   UNL     1      52.519  53.011  18.434  1.00  0.00    +0.286 C 
ATOM     20  C   UNL     1      51.467  50.843  18.237  1.00  0.00    +0.262 C 
ATOM     21  N   UNL     1      52.686  51.624  17.878  1.00  0.00    -0.344 N 
ATOM     22  H   UNL     1      53.548  51.178  18.221  1.00  0.00    +0.346 HD
ATOM     23  H   UNL     1      52.780  51.676  16.852  1.00  0.00    +0.346 HD
ENDBRANCH   1  17
TORSDOF 5
ENDMDL
MODEL 2
REMARK VINA RESULT:    -6.388      3.046      5.642
REMARK INTER + INTRA:          -9.202
REMARK INTER:                  -8.478
REMARK INTRA:                  -0.724
REMARK UNBOUND:                -0.947
REMARK SMILES NC(=O)CN(C(=O)[C@H]1CCC(=O)N1)[C@@H]1CC[NH2+]C1
REMARK SMILES IDX 5 1 6 2 7 3 8 4 9 5 10 6 11 7 13 8 12 9 4 11 2 12 3 13 1 14
REMARK SMILES IDX 14 17 15 18 18 19 16 20 17 21
REMARK H PARENT 13 10 1 15 1 16 17 22 17 23
ROOT
ATOM      1  N   UNL     1      51.225  52.039  20.077  1.00  0.00    -0.323 N 
ENDROOT
BRANCH   1   2
ATOM      2  C   UNL     1      51.164  52.080  18.676  1.00  0.00    +0.246 C 
ATOM      3  O   UNL     1      52.023  52.688  18.033  1.00  0.00    -0.272 OA
BRANCH   2   4
ATOM      4  C   UNL     1      50.023  51.368  17.939  1.00  0.00    +0.172 C 
ATOM      5  C   UNL     1      49.049  52.292  17.211  1.00  0.00    +0.045 C 
ATOM      6  C   UNL     1      48.480  51.403  16.109  1.00  0.00    +0.102 C 
ATOM      7  C   UNL     1      49.672  50.548  15.781  1.00  0.00    +0.220 C 
ATOM      8  N   UNL     1      50.496  50.500  16.890  1.00  0.00    -0.344 N 
ATOM      9  O   UNL     1      49.896  49.960  14.740  1.00  0.00    -0.275 OA
ATOM     10  H   UNL     1      51.475  50.339  16.673  1.00  0.00    +0.164 HD
ENDBRANCH   2   4
ENDBRANCH   1   2
BRANCH   1  11
ATOM     11  C   UNL     1      52.302  51.164  20.594  1.00  0.00    +0.219 C 
BRANCH  11  12
ATOM     12  C   UNL     1      51.917  49.687  20.451  1.00  0.00    +0.237 C 
ATOM     13  O   UNL     1      50.821  49.250  20.798  1.00  0.00    -0.273 OA
ATOM     14  N   UNL     1      52.836  48.887  19.843  1.00  0.00    -0.368 N 
ATOM     15  H   UNL     1      53.821  49.132  19.836  1.00  0.00    +0.159 HD
ATOM     16  H   UNL     1      52.633  47.894  19.821  1.00  0.00    +0.159 HD
ENDBRANCH  11  12
ENDBRANCH   1  11
BRANCH   1  17
ATOM     17  C   UNL     1      50.695  53.025  21.055  1.00  0.00    +0.146 C 
ATOM     18  C   UNL     1      49.954  54.236  20.484  1.00  0.00    +0.092 C 
ATOM     19  C   UNL     1      51.686  53.573  22.101  1.00  0.00    +0.286 C 
ATOM     20  C   UNL     1      50.721  55.461  20.939  1.00  0.00    +0.262 C 
ATOM     21  N   UNL     1      51.352  55.035  22.221  1.00  0.00    -0.344 N 
ATOM     22  H   UNL     1      52.184  55.597  22.451  1.00  0.00    +0.346 HD
ATOM     23  H   UNL     1      50.691  55.171  23.000  1.00  0.00    +0.346 HD
ENDBRANCH   1  17
TORSDOF 5
ENDMDL
MODEL 3
REMARK VINA RESULT:    -6.386      1.752      2.507
REMARK INTER + INTRA:          -9.199
REMARK INTER:                  -8.568
REMARK INTRA:                  -0.631
REMARK UNBOUND:                -0.947
REMARK SMILES NC(=O)CN(C(=O)[C@H]1CCC(=O)N1)[C@@H]1CC[NH2+]C1
REMARK SMILES IDX 5 1 6 2 7 3 8 4 9 5 10 6 11 7 13 8 12 9 4 11 2 12 3 13 1 14
REMARK SMILES IDX 14 17 15 18 18 19 16 20 17 21
REMARK H PARENT 13 10 1 15 1 16 17 22 17 23
ROOT
ATOM      1  N   UNL     1      50.842  53.934  19.631  1.00  0.00    -0.323 N 
ENDROOT
BRANCH   1   2
ATOM      2  C   UNL     1      50.693  55.330  19.615  1.00  0.00    +0.246 C 
ATOM      3  O   UNL     1      51.600  56.047  19.186  1.00  0.00    -0.272 OA
BRANCH   2   4
ATOM      4  C   UNL     1      49.398  55.967  20.134  1.00  0.00    +0.172 C 
ATOM      5  C   UNL     1      49.587  57.001  21.242  1.00  0.00    +0.045 C 
ATOM      6  C   UNL     1      48.352  57.886  21.109  1.00  0.00    +0.102 C 
ATOM      7  C   UNL     1      48.139  57.866  19.622  1.00  0.00    +0.220 C 
ATOM      8  N   UNL     1      48.696  56.706  19.115  1.00  0.00    -0.344 N 
ATOM      9  O   UNL     1      47.557  58.693  18.946  1.00  0.00    -0.275 OA
ATOM     10  H   UNL     1      48.994  56.777  18.146  1.00  0.00    +0.164 HD
ENDBRANCH   2   4
ENDBRANCH   1   2
BRANCH   1  11
ATOM     11  C   UNL     1      50.366  53.306  20.884  1.00  0.00    +0.219 C 
BRANCH  11  12
ATOM     12  C   UNL     1      51.505  53.200  21.906  1.00  0.00    +0.237 C 
ATOM     13  O   UNL     1      51.948  54.175  22.510  1.00  0.00    -0.273 OA
ATOM     14  N   UNL     1      51.956  51.942  22.167  1.00  0.00    -0.368 N 
ATOM     15  H   UNL     1      51.844  51.194  21.491  1.00  0.00    +0.159 HD
ATOM     16  H   UNL     1      52.767  51.865  22.772  1.00  0.00    +0.159 HD
ENDBRANCH  11  12
ENDBRANCH   1  11
BRANCH   1  17
ATOM     17  C   UNL     1      50.982  53.007  18.478  1.00  0.00    +0.146 C 
ATOM     18  C   UNL     1      49.802  52.076  18.190  1.00  0.00    +0.092 C 
ATOM     19  C   UNL     1      52.250  52.130  18.439  1.00  0.00    +0.286 C 
ATOM     20  C   UNL     1      50.333  50.662  18.312  1.00  0.00    +0.262 C 
ATOM     21  N   UNL     1      51.775  50.787  17.955  1.00  0.00    -0.344 N 
ATOM     22  H   UNL     1      52.340  50.020  18.348  1.00  0.00    +0.346 HD
ATOM     23  H   UNL     1      51.890  50.731  16.932  1.00  0.00    +0.346 HD
ENDBRANCH   1  17
TORSDOF 5
ENDMDL
MODEL 4
REMARK VINA RESULT:    -6.213      2.784      3.870
REMARK INTER + INTRA:          -8.975
REMARK INTER:                  -8.612
REMARK INTRA:                  -0.363
REMARK UNBOUND:                -0.947
REMARK SMILES NC(=O)CN(C(=O)[C@H]1CCC(=O)N1)[C@@H]1CC[NH2+]C1
REMARK SMILES IDX 5 1 6 2 7 3 8 4 9 5 10 6 11 7 13 8 12 9 4 11 2 12 3 13 1 14
REMARK SMILES IDX 14 17 15 18 18 19 16 20 17 21
REMARK H PARENT 13 10 1 15 1 16 17 22 17 23
ROOT
ATOM      1  N   UNL     1      50.776  50.735  18.463  1.00  0.00    -0.323 N 
ENDROOT
BRANCH   1   2
ATOM      2  C   UNL     1      51.700  51.767  18.236  1.00  0.00    +0.246 C 
ATOM      3  O   UNL     1      52.746  51.542  17.622  1.00  0.00    -0.272 OA
BRANCH   2   4
ATOM      4  C   UNL     1      51.409  53.181  18.752  1.00  0.00    +0.172 C 
ATOM      5  C   UNL     1      50.008  53.384  19.324  1.00  0.00    +0.045 C 
ATOM      6  C   UNL     1      50.190  54.549  20.292  1.00  0.00    +0.102 C 
ATOM      7  C   UNL     1      51.581  54.290  20.801  1.00  0.00    +0.220 C 
ATOM      8  N   UNL     1      52.267  53.559  19.847  1.00  0.00    -0.344 N 
ATOM      9  O   UNL     1      52.066  54.663  21.851  1.00  0.00    -0.275 OA
ATOM     10  H   UNL     1      53.010  52.979  20.224  1.00  0.00    +0.164 HD
ENDBRANCH   2   4
ENDBRANCH   1   2
BRANCH   1  11
ATOM     11  C   UNL     1      50.809  50.209  19.846  1.00  0.00    +0.219 C 
BRANCH  11  12
ATOM     12  C   UNL     1      52.256  50.016  20.319  1.00  0.00    +0.237 C 
ATOM     13  O   UNL     1      52.800  50.776  21.119  1.00  0.00    -0.273 OA
ATOM     14  N   UNL     1      52.890  48.902  19.859  1.00  0.00    -0.368 N 
ATOM     15  H   UNL     1      52.600  48.453  18.997  1.00  0.00    +0.159 HD
ATOM     16  H   UNL     1      53.873  48.808  20.092  1.00  0.00    +0.159 HD
ENDBRANCH  11  12
ENDBRANCH   1  11
BRANCH   1  17
ATOM     17  C   UNL     1      49.541  50.417  17.700  1.00  0.00    +0.146 C 
ATOM     18  C   UNL     1      48.604  49.368  18.304  1.00  0.00    +0.092 C 
ATOM     19  C   UNL     1      49.715  50.042  16.214  1.00  0.00    +0.286 C 
ATOM     20  C   UNL     1      48.510  48.244  17.293  1.00  0.00    +0.262 C 
ATOM     21  N   UNL     1      48.742  48.919  15.983  1.00  0.00    -0.344 N 
ATOM     22  H   UNL     1      49.081  48.264  15.263  1.00  0.00    +0.346 HD
ATOM     23  H   UNL     1      47.855  49.303  15.624  1.00  0.00    +0.346 HD
ENDBRANCH   1  17
TORSDOF 5
ENDMDL
MODEL 5
REMARK VINA RESULT:    -6.148      3.783      6.660
REMARK INTER + INTRA:          -8.892
REMARK INTER:                  -8.251
REMARK INTRA:                  -0.641
REMARK UNBOUND:                -0.947
REMARK SMILES NC(=O)CN(C(=O)[C@H]1CCC(=O)N1)[C@@H]1CC[NH2+]C1
REMARK SMILES IDX 5 1 6 2 7 3 8 4 9 5 10 6 11 7 13 8 12 9 4 11 2 12 3 13 1 14
REMARK SMILES IDX 14 17 15 18 18 19 16 20 17 21
REMARK H PARENT 13 10 1 15 1 16 17 22 17 23
ROOT
ATOM      1  N   UNL     1      50.810  51.438  18.275  1.00  0.00    -0.323 N 
ENDROOT
BRANCH   1   2
ATOM      2  C   UNL     1      50.135  50.526  17.450  1.00  0.00    +0.246 C 
ATOM      3  O   UNL     1      50.439  50.420  16.259  1.00  0.00    -0.272 OA
BRANCH   2   4
ATOM      4  C   UNL     1      49.013  49.656  18.029  1.00  0.00    +0.172 C 
ATOM      5  C   UNL     1      47.599  50.094  17.657  1.00  0.00    +0.045 C 
ATOM      6  C   UNL     1      46.790  48.806  17.771  1.00  0.00    +0.102 C 
ATOM      7  C   UNL     1      47.802  47.788  17.324  1.00  0.00    +0.220 C 
ATOM      8  N   UNL     1      49.068  48.294  17.559  1.00  0.00    -0.344 N 
ATOM      9  O   UNL     1      47.585  46.686  16.856  1.00  0.00    -0.275 OA
ATOM     10  H   UNL     1      49.783  47.926  16.940  1.00  0.00    +0.164 HD
ENDBRANCH   2   4
ENDBRANCH   1   2
BRANCH   1  11
ATOM     11  C   UNL     1      52.139  50.959  18.719  1.00  0.00    +0.219 C 
BRANCH  11  12
ATOM     12  C   UNL     1      52.000  49.999  19.907  1.00  0.00    +0.237 C 
ATOM     13  O   UNL     1      51.193  50.180  20.817  1.00  0.00    -0.273 OA
ATOM     14  N   UNL     1      52.775  48.879  19.862  1.00  0.00    -0.368 N 
ATOM     15  H   UNL     1      53.634  48.858  19.322  1.00  0.00    +0.159 HD
ATOM     16  H   UNL     1      52.759  48.281  20.681  1.00  0.00    +0.159 HD
ENDBRANCH  11  12
ENDBRANCH   1  11
BRANCH   1  17
ATOM     17  C   UNL     1      50.599  52.904  18.398  1.00  0.00    +0.146 C 
ATOM     18  C   UNL     1      51.016  53.556  19.718  1.00  0.00    +0.092 C 
ATOM     19  C   UNL     1      49.187  53.435  18.076  1.00  0.00    +0.286 C 
ATOM     20  C   UNL     1      49.763  54.175  20.304  1.00  0.00    +0.262 C 
ATOM     21  N   UNL     1      48.927  54.495  19.111  1.00  0.00    -0.344 N 
ATOM     22  H   UNL     1      47.926  54.561  19.345  1.00  0.00    +0.346 HD
ATOM     23  H   UNL     1      49.194  55.416  18.732  1.00  0.00    +0.346 HD
ENDBRANCH   1  17
TORSDOF 5
ENDMDL
