MODEL 1
REMARK VINA RESULT:    -7.261      0.000      0.000
REMARK INTER + INTRA:          -9.531
REMARK INTER:                  -9.171
REMARK INTRA:                  -0.360
REMARK UNBOUND:                -0.360
REMARK SMILES CC(=O)N1CCC(NC(=O)[C@H]([NH3+])CC(N)=O)CC1
REMARK SMILES IDX 11 1 9 2 8 3 10 4 7 6 2 7 3 8 4 9 5 10 18 11 6 12 17 13 1 14
REMARK SMILES IDX 13 15 14 16 16 17 15 18 12 21
REMARK H PARENT 8 5 15 19 15 20 12 22 12 23 12 24
ROOT
ATOM      1  C   UNL     1      51.913  50.226  19.705  1.00  0.00    +0.280 C 
ENDROOT
BRANCH   1   2
ATOM      2  C   UNL     1      50.825  50.163  18.623  1.00  0.00    +0.278 C 
ATOM      3  N   UNL     1      49.924  49.129  18.726  1.00  0.00    -0.348 N 
ATOM      4  O   UNL     1      50.812  51.013  17.735  1.00  0.00    -0.268 OA
ATOM      5  H   UNL     1      49.799  48.703  19.637  1.00  0.00    +0.163 HD
BRANCH   3   6
ATOM      6  C   UNL     1      48.763  49.015  17.828  1.00  0.00    +0.085 C 
ATOM      7  C   UNL     1      45.207  47.940  15.942  1.00  0.00    +0.219 C 
ATOM      8  O   UNL     1      44.149  47.853  16.563  1.00  0.00    -0.275 OA
ATOM      9  N   UNL     1      46.445  47.966  16.575  1.00  0.00    -0.343 N 
ATOM     10  C   UNL     1      46.499  47.818  18.020  1.00  0.00    +0.121 C 
ATOM     11  C   UNL     1      47.711  47.889  15.852  1.00  0.00    +0.121 C 
ATOM     12  C   UNL     1      47.473  48.812  18.647  1.00  0.00    +0.046 C 
ATOM     13  C   UNL     1      48.928  47.911  16.778  1.00  0.00    +0.046 C 
ATOM     14  C   UNL     1      45.203  48.042  14.438  1.00  0.00    +0.114 C 
ENDBRANCH   3   6
ENDBRANCH   1   2
BRANCH   1  15
ATOM     15  C   UNL     1      51.338  50.754  21.021  1.00  0.00    +0.175 C 
BRANCH  15  16
ATOM     16  C   UNL     1      51.793  52.169  21.258  1.00  0.00    +0.223 C 
ATOM     17  O   UNL     1      52.348  52.816  20.376  1.00  0.00    -0.275 OA
ATOM     18  N   UNL     1      51.605  52.652  22.508  1.00  0.00    -0.369 N 
ATOM     19  H   UNL     1      51.061  52.186  23.226  1.00  0.00    +0.159 HD
ATOM     20  H   UNL     1      51.882  53.611  22.706  1.00  0.00    +0.159 HD
ENDBRANCH  15  16
ENDBRANCH   1  15
BRANCH   1  21
ATOM     21  N   UNL     1      52.506  48.853  19.889  1.00  0.00    -0.347 N 
ATOM     22  H   UNL     1      51.788  48.171  20.165  1.00  0.00    +0.345 HD
ATOM     23  H   UNL     1      52.898  48.503  19.007  1.00  0.00    +0.345 HD
ATOM     24  H   UNL     1      53.261  48.875  20.601  1.00  0.00    +0.345 HD
ENDBRANCH   1  21
TORSDOF 5
ENDMDL
MODEL 2
REMARK VINA RESULT:    -7.091      1.424      1.554
REMARK INTER + INTRA:          -9.317
REMARK INTER:                  -9.014
REMARK INTRA:                  -0.303
REMARK UNBOUND:                -0.360
REMARK SMILES CC(=O)N1CCC(NC(=O)[C@H]([NH3+])CC(N)=O)CC1
REMARK SMILES IDX 11 1 9 2 8 3 10 4 7 6 2 7 3 8 4 9 5 10 18 11 6 12 17 13 1 14
REMARK SMILES IDX 13 15 14 16 16 17 15 18 12 21
REMARK H PARENT 8 5 15 19 15 20 12 22 12 23 12 24
ROOT
ATOM      1  C   UNL     1      51.977  51.201  18.048  1.00  0.00    +0.280 C 
ENDROOT
BRANCH   1   2
ATOM      2  C   UNL     1      50.508  50.976  17.664  1.00  0.00    +0.278 C 
ATOM      3  N   UNL     1      50.136  49.674  17.419  1.00  0.00    -0.348 N 
ATOM      4  O   UNL     1      49.751  51.942  17.592  1.00  0.00    -0.268 OA
ATOM      5  H   UNL     1      50.703  48.939  17.824  1.00  0.00    +0.163 HD
BRANCH   3   6
ATOM      6  C   UNL     1      48.736  49.300  17.158  1.00  0.00    +0.085 C 
ATOM      7  C   UNL     1      44.886  47.717  17.304  1.00  0.00    +0.219 C 
ATOM      8  O   UNL     1      44.184  47.821  18.309  1.00  0.00    -0.275 OA
ATOM      9  N   UNL     1      46.260  47.928  17.326  1.00  0.00    -0.343 N 
ATOM     10  C   UNL     1      46.905  48.218  18.596  1.00  0.00    +0.121 C 
ATOM     11  C   UNL     1      47.130  47.637  16.191  1.00  0.00    +0.121 C 
ATOM     12  C   UNL     1      47.917  49.352  18.462  1.00  0.00    +0.046 C 
ATOM     13  C   UNL     1      48.603  47.932  16.478  1.00  0.00    +0.046 C 
ATOM     14  C   UNL     1      44.268  47.366  15.974  1.00  0.00    +0.114 C 
ENDBRANCH   3   6
ENDBRANCH   1   2
BRANCH   1  15
ATOM     15  C   UNL     1      52.318  50.466  19.345  1.00  0.00    +0.175 C 
BRANCH  15  16
ATOM     16  C   UNL     1      52.289  51.420  20.509  1.00  0.00    +0.223 C 
ATOM     17  O   UNL     1      52.197  52.632  20.337  1.00  0.00    -0.275 OA
ATOM     18  N   UNL     1      52.428  50.867  21.736  1.00  0.00    -0.369 N 
ATOM     19  H   UNL     1      52.402  49.869  21.919  1.00  0.00    +0.159 HD
ATOM     20  H   UNL     1      52.395  51.474  22.550  1.00  0.00    +0.159 HD
ENDBRANCH  15  16
ENDBRANCH   1  15
BRANCH   1  21
ATOM     21  N   UNL     1      52.859  50.736  16.918  1.00  0.00    -0.347 N 
ATOM     22  H   UNL     1      52.367  50.790  16.016  1.00  0.00    +0.345 HD
ATOM     23  H   UNL     1      53.682  51.342  16.823  1.00  0.00    +0.345 HD
ATOM     24  H   UNL     1      53.180  49.763  17.084  1.00  0.00    +0.345 HD
ENDBRANCH   1  21
TORSDOF 5
ENDMDL
MODEL 3
REMARK VINA RESULT:    -6.804      4.441      7.259
REMARK INTER + INTRA:          -8.954
REMARK INTER:                  -8.757
REMARK INTRA:                  -0.197
REMARK UNBOUND:                -0.360
REMARK SMILES CC(=O)N1CCC(NC(=O)[C@H]([NH3+])CC(N)=O)CC1
REMARK SMILES IDX 11 1 9 2 8 3 10 4 7 6 2 7 3 8 4 9 5 10 18 11 6 12 17 13 1 14
REMARK SMILES IDX 13 15 14 16 16 17 15 18 12 21
REMARK H PARENT 8 5 15 19 15 20 12 22 12 23 12 24
ROOT
ATOM      1  C   UNL     1      52.303  51.083  18.334  1.00  0.00    +0.280 C 
ENDROOT
BRANCH   1   2
ATOM      2  C   UNL     1      51.943  52.568  18.491  1.00  0.00    +0.278 C 
ATOM      3  N   UNL     1      50.661  52.842  18.909  1.00  0.00    -0.348 N 
ATOM      4  O   UNL     1      52.791  53.421  18.239  1.00  0.00    -0.268 OA
ATOM      5  H   UNL     1      50.164  52.113  19.409  1.00  0.00    +0.163 HD
BRANCH   3   6
ATOM      6  C   UNL     1      50.218  54.212  19.215  1.00  0.00    +0.085 C 
ATOM      7  C   UNL     1      49.028  57.754  21.056  1.00  0.00    +0.219 C 
ATOM      8  O   UNL     1      49.686  58.261  21.963  1.00  0.00    -0.275 OA
ATOM      9  N   UNL     1      49.203  56.435  20.654  1.00  0.00    -0.343 N 
ATOM     10  C   UNL     1      50.151  55.601  21.374  1.00  0.00    +0.121 C 
ATOM     11  C   UNL     1      48.315  55.766  19.708  1.00  0.00    +0.121 C 
ATOM     12  C   UNL     1      51.003  54.771  20.417  1.00  0.00    +0.046 C 
ATOM     13  C   UNL     1      48.706  54.310  19.451  1.00  0.00    +0.046 C 
ATOM     14  C   UNL     1      47.995  58.566  20.316  1.00  0.00    +0.114 C 
ENDBRANCH   3   6
ENDBRANCH   1   2
BRANCH   1  15
ATOM     15  C   UNL     1      51.120  50.194  18.723  1.00  0.00    +0.175 C 
BRANCH  15  16
ATOM     16  C   UNL     1      51.479  49.335  19.905  1.00  0.00    +0.223 C 
ATOM     17  O   UNL     1      50.668  49.110  20.798  1.00  0.00    -0.275 OA
ATOM     18  N   UNL     1      52.754  48.884  19.947  1.00  0.00    -0.369 N 
ATOM     19  H   UNL     1      53.414  48.965  19.182  1.00  0.00    +0.159 HD
ATOM     20  H   UNL     1      53.033  48.285  20.720  1.00  0.00    +0.159 HD
ENDBRANCH  15  16
ENDBRANCH   1  15
BRANCH   1  21
ATOM     21  N   UNL     1      52.725  50.826  16.910  1.00  0.00    -0.347 N 
ATOM     22  H   UNL     1      53.624  51.278  16.702  1.00  0.00    +0.345 HD
ATOM     23  H   UNL     1      52.873  49.823  16.748  1.00  0.00    +0.345 HD
ATOM     24  H   UNL     1      52.000  51.165  16.249  1.00  0.00    +0.345 HD
ENDBRANCH   1  21
TORSDOF 5
ENDMDL
MODEL 4
REMARK VINA RESULT:    -6.715      1.657      2.063
REMARK INTER + INTRA:          -8.842
REMARK INTER:                  -8.528
REMARK INTRA:                  -0.315
REMARK UNBOUND:                -0.360
REMARK SMILES CC(=O)N1CCC(NC(=O)[C@H]([NH3+])CC(N)=O)CC1
REMARK SMILES IDX 11 1 9 2 8 3 10 4 7 6 2 7 3 8 4 9 5 10 18 11 6 12 17 13 1 14
REMARK SMILES IDX 13 15 14 16 16 17 15 18 12 21
REMARK H PARENT 8 5 15 19 15 20 12 22 12 23 12 24
ROOT
ATOM      1  C   UNL     1      51.874  50.057  19.752  1.00  0.00    +0.280 C 
ENDROOT
BRANCH   1   2
ATOM      2  C   UNL     1      50.523  49.493  19.289  1.00  0.00    +0.278 C 
ATOM      3  N   UNL     1      50.189  49.717  17.974  1.00  0.00    -0.348 N 
ATOM      4  O   UNL     1      49.817  48.888  20.094  1.00  0.00    -0.268 OA
ATOM      5  H   UNL     1      50.943  49.905  17.323  1.00  0.00    +0.163 HD
BRANCH   3   6
ATOM      6  C   UNL     1      48.982  49.134  17.366  1.00  0.00    +0.085 C 
ATOM      7  C   UNL     1      45.787  48.143  14.883  1.00  0.00    +0.219 C 
ATOM      8  O   UNL     1      45.955  47.863  13.697  1.00  0.00    -0.275 OA
ATOM      9  N   UNL     1      46.756  48.789  15.643  1.00  0.00    -0.343 N 
ATOM     10  C   UNL     1      47.989  49.209  14.999  1.00  0.00    +0.121 C 
ATOM     11  C   UNL     1      46.508  49.287  16.993  1.00  0.00    +0.121 C 
ATOM     12  C   UNL     1      49.207  48.888  15.861  1.00  0.00    +0.046 C 
ATOM     13  C   UNL     1      47.726  49.981  17.604  1.00  0.00    +0.046 C 
ATOM     14  C   UNL     1      44.502  47.775  15.579  1.00  0.00    +0.114 C 
ENDBRANCH   3   6
ENDBRANCH   1   2
BRANCH   1  15
ATOM     15  C   UNL     1      51.724  50.807  21.077  1.00  0.00    +0.175 C 
BRANCH  15  16
ATOM     16  C   UNL     1      52.009  52.272  20.883  1.00  0.00    +0.223 C 
ATOM     17  O   UNL     1      51.698  53.099  21.734  1.00  0.00    -0.275 OA
ATOM     18  N   UNL     1      52.568  52.618  19.700  1.00  0.00    -0.369 N 
ATOM     19  H   UNL     1      52.930  51.954  19.023  1.00  0.00    +0.159 HD
ATOM     20  H   UNL     1      52.794  53.595  19.536  1.00  0.00    +0.159 HD
ENDBRANCH  15  16
ENDBRANCH   1  15
BRANCH   1  21
ATOM     21  N   UNL     1      52.862  48.926  19.882  1.00  0.00    -0.347 N 
ATOM     22  H   UNL     1      52.515  48.075  19.422  1.00  0.00    +0.345 HD
ATOM     23  H   UNL     1      53.745  49.156  19.412  1.00  0.00    +0.345 HD
ATOM     24  H   UNL     1      53.059  48.729  20.882  1.00  0.00    +0.345 HD
ENDBRANCH   1  21
TORSDOF 5
ENDMDL
MODEL 5
REMARK VINA RESULT:    -6.398      3.903      5.066
REMARK INTER + INTRA:          -8.442
REMARK INTER:                  -7.969
REMARK INTRA:                  -0.473
REMARK UNBOUND:                -0.360
REMARK SMILES CC(=O)N1CCC(NC(=O)[C@H]([NH3+])CC(N)=O)CC1
REMARK SMILES IDX 11 1 9 2 8 3 10 4 7 6 2 7 3 8 4 9 5 10 18 11 6 12 17 13 1 14
REMARK SMILES IDX 13 15 14 16 16 17 15 18 12 21
REMARK H PARENT 8 5 15 19 15 20 12 22 12 23 12 24
ROOT
ATOM      1  C   UNL     1      50.889  56.631  19.808  1.00  0.00    +0.280 C 
ENDROOT
BRANCH   1   2
ATOM      2  C   UNL     1      49.831  55.534  19.620  1.00  0.00    +0.278 C 
ATOM      3  N   UNL     1      50.164  54.508  18.766  1.00  0.00    -0.348 N 
ATOM      4  O   UNL     1      48.762  55.621  20.221  1.00  0.00    -0.268 OA
ATOM      5  H   UNL     1      51.149  54.338  18.597  1.00  0.00    +0.163 HD
BRANCH   3   6
ATOM      6  C   UNL     1      49.297  53.333  18.584  1.00  0.00    +0.085 C 
ATOM      7  C   UNL     1      47.643  49.661  17.516  1.00  0.00    +0.219 C 
ATOM      8  O   UNL     1      48.251  48.606  17.689  1.00  0.00    -0.275 OA
ATOM      9  N   UNL     1      48.273  50.901  17.545  1.00  0.00    -0.343 N 
ATOM     10  C   UNL     1      49.715  50.951  17.720  1.00  0.00    +0.121 C 
ATOM     11  C   UNL     1      47.606  52.143  17.168  1.00  0.00    +0.121 C 
ATOM     12  C   UNL     1      50.119  52.036  18.714  1.00  0.00    +0.046 C 
ATOM     13  C   UNL     1      48.523  53.363  17.261  1.00  0.00    +0.046 C 
ATOM     14  C   UNL     1      46.155  49.654  17.278  1.00  0.00    +0.114 C 
ENDBRANCH   3   6
ENDBRANCH   1   2
BRANCH   1  15
ATOM     15  C   UNL     1      50.772  57.264  21.196  1.00  0.00    +0.175 C 
BRANCH  15  16
ATOM     16  C   UNL     1      52.067  57.116  21.948  1.00  0.00    +0.223 C 
ATOM     17  O   UNL     1      52.414  56.033  22.411  1.00  0.00    -0.275 OA
ATOM     18  N   UNL     1      52.783  58.249  22.130  1.00  0.00    -0.369 N 
ATOM     19  H   UNL     1      52.579  59.133  21.675  1.00  0.00    +0.159 HD
ATOM     20  H   UNL     1      53.673  58.190  22.617  1.00  0.00    +0.159 HD
ENDBRANCH  15  16
ENDBRANCH   1  15
BRANCH   1  21
ATOM     21  N   UNL     1      52.258  56.038  19.599  1.00  0.00    -0.347 N 
ATOM     22  H   UNL     1      52.900  56.723  19.181  1.00  0.00    +0.345 HD
ATOM     23  H   UNL     1      52.681  55.770  20.495  1.00  0.00    +0.345 HD
ATOM     24  H   UNL     1      52.201  55.196  18.994  1.00  0.00    +0.345 HD
ENDBRANCH   1  21
TORSDOF 5
ENDMDL
