MODEL 1
REMARK VINA RESULT:    -7.739      0.000      0.000
REMARK INTER + INTRA:         -10.006
REMARK INTER:                  -9.775
REMARK INTRA:                  -0.230
REMARK UNBOUND:                -0.230
REMARK SMILES CNC(=O)c1ccc(Cl)c(NC(=O)[C@](C)([NH3+])C2CC2)c1
REMARK SMILES IDX 12 1 13 2 11 3 14 5 15 6 17 7 18 8 19 9 16 10 10 14 20 15
REMARK SMILES IDX 8 16 5 17 7 18 6 19 9 20 3 21 4 22 2 23 1 24
REMARK H PARENT 11 4 16 11 16 12 16 13 2 25
ROOT
ATOM      1  C   UNL     1      50.371  50.998  18.147  1.00  0.00    +0.285 C 
ATOM      2  O   UNL     1      49.574  51.937  18.222  1.00  0.00    -0.267 OA
ATOM      3  N   UNL     1      50.107  49.748  17.635  1.00  0.00    -0.319 N 
ATOM      4  H   UNL     1      50.850  49.050  17.629  1.00  0.00    +0.170 HD
ENDROOT
BRANCH   1   5
ATOM      5  C   UNL     1      51.812  51.229  18.713  1.00  0.00    +0.174 C 
ATOM      6  C   UNL     1      52.248  52.679  18.463  1.00  0.00    +0.090 C 
BRANCH   5   7
ATOM      7  C   UNL     1      51.991  50.862  20.175  1.00  0.00    +0.060 C 
ATOM      8  C   UNL     1      51.223  51.460  21.334  1.00  0.00    +0.011 C 
ATOM      9  C   UNL     1      50.944  50.047  20.902  1.00  0.00    +0.011 C 
ENDBRANCH   5   7
BRANCH   5  10
ATOM     10  N   UNL     1      52.745  50.366  17.881  1.00  0.00    -0.345 N 
ATOM     11  H   UNL     1      52.979  50.828  16.993  1.00  0.00    +0.345 HD
ATOM     12  H   UNL     1      53.599  50.087  18.373  1.00  0.00    +0.345 HD
ATOM     13  H   UNL     1      52.225  49.522  17.606  1.00  0.00    +0.345 HD
ENDBRANCH   5  10
ENDBRANCH   1   5
BRANCH   3  14
ATOM     14  C   UNL     1      48.906  49.280  17.038  1.00  0.00    +0.060 A 
ATOM     15  C   UNL     1      47.776  48.899  17.768  1.00  0.00    +0.041 A 
ATOM     16  C   UNL     1      48.854  49.221  15.629  1.00  0.00    +0.064 A 
ATOM     17  C   UNL     1      46.618  48.462  17.104  1.00  0.00    +0.041 A 
ATOM     18  C   UNL     1      47.704  48.797  14.966  1.00  0.00    +0.023 A 
ATOM     19  C   UNL     1      46.582  48.423  15.705  1.00  0.00    +0.015 A 
ATOM     20 Cl   UNL     1      50.226  49.687  14.680  1.00  0.00    -0.082 Cl
BRANCH  17  21
ATOM     21  C   UNL     1      45.387  48.077  17.848  1.00  0.00    +0.251 C 
ATOM     22  O   UNL     1      44.288  48.288  17.351  1.00  0.00    -0.269 OA
ATOM     23  N   UNL     1      45.573  47.465  19.070  1.00  0.00    -0.355 N 
ATOM     24  C   UNL     1      44.442  46.954  19.807  1.00  0.00    +0.143 C 
ATOM     25  H   UNL     1      46.483  47.091  19.299  1.00  0.00    +0.163 HD
ENDBRANCH  17  21
ENDBRANCH   3  14
TORSDOF 5
ENDMDL
MODEL 2
REMARK VINA RESULT:    -7.408      4.756      7.736
REMARK INTER + INTRA:          -9.587
REMARK INTER:                  -9.356
REMARK INTRA:                  -0.230
REMARK UNBOUND:                -0.230
REMARK SMILES CNC(=O)c1ccc(Cl)c(NC(=O)[C@](C)([NH3+])C2CC2)c1
REMARK SMILES IDX 12 1 13 2 11 3 14 5 15 6 17 7 18 8 19 9 16 10 10 14 20 15
REMARK SMILES IDX 8 16 5 17 7 18 6 19 9 20 3 21 4 22 2 23 1 24
REMARK H PARENT 11 4 16 11 16 12 16 13 2 25
ROOT
ATOM      1  C   UNL     1      50.496  52.518  18.587  1.00  0.00    +0.285 C 
ATOM      2  O   UNL     1      51.485  53.034  18.058  1.00  0.00    -0.267 OA
ATOM      3  N   UNL     1      49.824  52.994  19.689  1.00  0.00    -0.319 N 
ATOM      4  H   UNL     1      49.018  52.476  20.038  1.00  0.00    +0.170 HD
ENDROOT
BRANCH   1   5
ATOM      5  C   UNL     1      49.968  51.178  17.974  1.00  0.00    +0.174 C 
ATOM      6  C   UNL     1      49.995  50.069  19.033  1.00  0.00    +0.090 C 
BRANCH   5   7
ATOM      7  C   UNL     1      48.596  51.268  17.329  1.00  0.00    +0.060 C 
ATOM      8  C   UNL     1      48.077  52.436  16.519  1.00  0.00    +0.011 C 
ATOM      9  C   UNL     1      48.437  51.151  15.828  1.00  0.00    +0.011 C 
ENDBRANCH   5   7
BRANCH   5  10
ATOM     10  N   UNL     1      50.973  50.765  16.913  1.00  0.00    -0.345 N 
ATOM     11  H   UNL     1      51.722  50.191  17.321  1.00  0.00    +0.345 HD
ATOM     12  H   UNL     1      50.554  50.285  16.111  1.00  0.00    +0.345 HD
ATOM     13  H   UNL     1      51.448  51.617  16.585  1.00  0.00    +0.345 HD
ENDBRANCH   5  10
ENDBRANCH   1   5
BRANCH   3  14
ATOM     14  C   UNL     1      50.070  54.188  20.419  1.00  0.00    +0.060 A 
ATOM     15  C   UNL     1      49.328  55.362  20.256  1.00  0.00    +0.041 A 
ATOM     16  C   UNL     1      51.109  54.171  21.373  1.00  0.00    +0.064 A 
ATOM     17  C   UNL     1      49.621  56.498  21.028  1.00  0.00    +0.041 A 
ATOM     18  C   UNL     1      51.397  55.293  22.148  1.00  0.00    +0.023 A 
ATOM     19  C   UNL     1      50.648  56.456  21.979  1.00  0.00    +0.015 A 
ATOM     20 Cl   UNL     1      52.054  52.740  21.616  1.00  0.00    -0.082 Cl
BRANCH  17  21
ATOM     21  C   UNL     1      48.833  57.756  20.902  1.00  0.00    +0.251 C 
ATOM     22  O   UNL     1      48.729  58.504  21.866  1.00  0.00    -0.269 OA
ATOM     23  N   UNL     1      48.280  58.013  19.665  1.00  0.00    -0.355 N 
ATOM     24  C   UNL     1      47.599  59.262  19.419  1.00  0.00    +0.143 C 
ATOM     25  H   UNL     1      48.615  57.501  18.861  1.00  0.00    +0.163 HD
ENDBRANCH  17  21
ENDBRANCH   3  14
TORSDOF 5
ENDMDL
MODEL 3
REMARK VINA RESULT:    -7.257      4.469      6.213
REMARK INTER + INTRA:          -9.397
REMARK INTER:                  -9.388
REMARK INTRA:                  -0.009
REMARK UNBOUND:                -0.230
REMARK SMILES CNC(=O)c1ccc(Cl)c(NC(=O)[C@](C)([NH3+])C2CC2)c1
REMARK SMILES IDX 12 1 13 2 11 3 14 5 15 6 17 7 18 8 19 9 16 10 10 14 20 15
REMARK SMILES IDX 8 16 5 17 7 18 6 19 9 20 3 21 4 22 2 23 1 24
REMARK H PARENT 11 4 16 11 16 12 16 13 2 25
ROOT
ATOM      1  C   UNL     1      51.261  55.325  20.543  1.00  0.00    +0.285 C 
ATOM      2  O   UNL     1      52.368  55.293  19.998  1.00  0.00    -0.267 OA
ATOM      3  N   UNL     1      50.310  54.332  20.508  1.00  0.00    -0.319 N 
ATOM      4  H   UNL     1      49.427  54.476  20.997  1.00  0.00    +0.170 HD
ENDROOT
BRANCH   1   5
ATOM      5  C   UNL     1      50.881  56.627  21.325  1.00  0.00    +0.174 C 
ATOM      6  C   UNL     1      51.637  57.829  20.743  1.00  0.00    +0.090 C 
BRANCH   5   7
ATOM      7  C   UNL     1      49.392  56.917  21.399  1.00  0.00    +0.060 C 
ATOM      8  C   UNL     1      48.771  58.249  21.760  1.00  0.00    +0.011 C 
ATOM      9  C   UNL     1      48.715  57.759  20.340  1.00  0.00    +0.011 C 
ENDBRANCH   5   7
BRANCH   5  10
ATOM     10  N   UNL     1      51.409  56.449  22.738  1.00  0.00    -0.345 N 
ATOM     11  H   UNL     1      50.779  55.859  23.294  1.00  0.00    +0.345 HD
ATOM     12  H   UNL     1      52.366  56.085  22.779  1.00  0.00    +0.345 HD
ATOM     13  H   UNL     1      51.380  57.369  23.199  1.00  0.00    +0.345 HD
ENDBRANCH   5  10
ENDBRANCH   1   5
BRANCH   3  14
ATOM     14  C   UNL     1      50.401  53.051  19.900  1.00  0.00    +0.060 A 
ATOM     15  C   UNL     1      49.902  52.761  18.626  1.00  0.00    +0.041 A 
ATOM     16  C   UNL     1      51.050  52.028  20.622  1.00  0.00    +0.064 A 
ATOM     17  C   UNL     1      50.046  51.472  18.086  1.00  0.00    +0.041 A 
ATOM     18  C   UNL     1      51.203  50.750  20.086  1.00  0.00    +0.023 A 
ATOM     19  C   UNL     1      50.705  50.474  18.814  1.00  0.00    +0.015 A 
ATOM     20 Cl   UNL     1      51.689  52.338  22.202  1.00  0.00    -0.082 Cl
BRANCH  17  21
ATOM     21  C   UNL     1      49.553  51.136  16.721  1.00  0.00    +0.251 C 
ATOM     22  O   UNL     1      48.716  51.851  16.187  1.00  0.00    -0.269 OA
ATOM     23  N   UNL     1      50.111  50.024  16.124  1.00  0.00    -0.355 N 
ATOM     24  C   UNL     1      49.780  49.690  14.759  1.00  0.00    +0.143 C 
ATOM     25  H   UNL     1      50.965  49.640  16.501  1.00  0.00    +0.163 HD
ENDBRANCH  17  21
ENDBRANCH   3  14
TORSDOF 5
ENDMDL
MODEL 4
REMARK VINA RESULT:    -7.159      4.779      7.278
REMARK INTER + INTRA:          -9.273
REMARK INTER:                  -9.209
REMARK INTRA:                  -0.064
REMARK UNBOUND:                -0.230
REMARK SMILES CNC(=O)c1ccc(Cl)c(NC(=O)[C@](C)([NH3+])C2CC2)c1
REMARK SMILES IDX 12 1 13 2 11 3 14 5 15 6 17 7 18 8 19 9 16 10 10 14 20 15
REMARK SMILES IDX 8 16 5 17 7 18 6 19 9 20 3 21 4 22 2 23 1 24
REMARK H PARENT 11 4 16 11 16 12 16 13 2 25
ROOT
ATOM      1  C   UNL     1      51.217  52.641  18.911  1.00  0.00    +0.285 C 
ATOM      2  O   UNL     1      52.090  53.289  18.326  1.00  0.00    -0.267 OA
ATOM      3  N   UNL     1      50.257  53.150  19.755  1.00  0.00    -0.319 N 
ATOM      4  H   UNL     1      49.588  52.512  20.184  1.00  0.00    +0.170 HD
ENDROOT
BRANCH   1   5
ATOM      5  C   UNL     1      51.211  51.089  18.704  1.00  0.00    +0.174 C 
ATOM      6  C   UNL     1      52.550  50.493  19.160  1.00  0.00    +0.090 C 
BRANCH   5   7
ATOM      7  C   UNL     1      50.052  50.361  19.360  1.00  0.00    +0.060 C 
ATOM      8  C   UNL     1      49.320  49.168  18.783  1.00  0.00    +0.011 C 
ATOM      9  C   UNL     1      50.242  48.983  19.956  1.00  0.00    +0.011 C 
ENDBRANCH   5   7
BRANCH   5  10
ATOM     10  N   UNL     1      51.142  50.855  17.205  1.00  0.00    -0.345 N 
ATOM     11  H   UNL     1      51.105  49.851  16.991  1.00  0.00    +0.345 HD
ATOM     12  H   UNL     1      50.369  51.346  16.745  1.00  0.00    +0.345 HD
ATOM     13  H   UNL     1      52.031  51.176  16.798  1.00  0.00    +0.345 HD
ENDBRANCH   5  10
ENDBRANCH   1   5
BRANCH   3  14
ATOM     14  C   UNL     1      50.019  54.508  20.096  1.00  0.00    +0.060 A 
ATOM     15  C   UNL     1      49.165  55.349  19.375  1.00  0.00    +0.041 A 
ATOM     16  C   UNL     1      50.669  55.022  21.238  1.00  0.00    +0.064 A 
ATOM     17  C   UNL     1      48.967  56.678  19.785  1.00  0.00    +0.041 A 
ATOM     18  C   UNL     1      50.469  56.337  21.653  1.00  0.00    +0.023 A 
ATOM     19  C   UNL     1      49.612  57.164  20.929  1.00  0.00    +0.015 A 
ATOM     20 Cl   UNL     1      51.734  54.020  22.166  1.00  0.00    -0.082 Cl
BRANCH  17  21
ATOM     21  C   UNL     1      48.042  57.592  19.059  1.00  0.00    +0.251 C 
ATOM     22  O   UNL     1      47.489  58.500  19.666  1.00  0.00    -0.269 OA
ATOM     23  N   UNL     1      47.888  57.364  17.708  1.00  0.00    -0.355 N 
ATOM     24  C   UNL     1      47.103  58.270  16.903  1.00  0.00    +0.143 C 
ATOM     25  H   UNL     1      48.558  56.780  17.228  1.00  0.00    +0.163 HD
ENDBRANCH  17  21
ENDBRANCH   3  14
TORSDOF 5
ENDMDL
MODEL 5
REMARK VINA RESULT:    -6.753      4.238      5.980
REMARK INTER + INTRA:          -8.760
REMARK INTER:                  -8.733
REMARK INTRA:                  -0.027
REMARK UNBOUND:                -0.230
REMARK SMILES CNC(=O)c1ccc(Cl)c(NC(=O)[C@](C)([NH3+])C2CC2)c1
REMARK SMILES IDX 12 1 13 2 11 3 14 5 15 6 17 7 18 8 19 9 16 10 10 14 20 15
REMARK SMILES IDX 8 16 5 17 7 18 6 19 9 20 3 21 4 22 2 23 1 24
REMARK H PARENT 11 4 16 11 16 12 16 13 2 25
ROOT
ATOM      1  C   UNL     1      51.364  55.315  20.006  1.00  0.00    +0.285 C 
ATOM      2  O   UNL     1      51.990  55.407  18.946  1.00  0.00    -0.267 OA
ATOM      3  N   UNL     1      50.602  54.242  20.408  1.00  0.00    -0.319 N 
ATOM      4  H   UNL     1      50.127  54.283  21.309  1.00  0.00    +0.170 HD
ENDROOT
BRANCH   1   5
ATOM      5  C   UNL     1      51.411  56.540  20.979  1.00  0.00    +0.174 C 
ATOM      6  C   UNL     1      51.652  56.060  22.417  1.00  0.00    +0.090 C 
BRANCH   5   7
ATOM      7  C   UNL     1      52.410  57.619  20.602  1.00  0.00    +0.060 C 
ATOM      8  C   UNL     1      52.943  58.690  21.530  1.00  0.00    +0.011 C 
ATOM      9  C   UNL     1      53.838  57.560  21.101  1.00  0.00    +0.011 C 
ENDBRANCH   5   7
BRANCH   5  10
ATOM     10  N   UNL     1      50.019  57.147  20.973  1.00  0.00    -0.345 N 
ATOM     11  H   UNL     1      49.364  56.560  20.442  1.00  0.00    +0.345 HD
ATOM     12  H   UNL     1      49.647  57.338  21.908  1.00  0.00    +0.345 HD
ATOM     13  H   UNL     1      50.066  58.029  20.445  1.00  0.00    +0.345 HD
ENDBRANCH   5  10
ENDBRANCH   1   5
BRANCH   3  14
ATOM     14  C   UNL     1      50.409  53.003  19.739  1.00  0.00    +0.060 A 
ATOM     15  C   UNL     1      49.713  52.874  18.533  1.00  0.00    +0.041 A 
ATOM     16  C   UNL     1      50.974  51.849  20.322  1.00  0.00    +0.064 A 
ATOM     17  C   UNL     1      49.579  51.615  17.924  1.00  0.00    +0.041 A 
ATOM     18  C   UNL     1      50.852  50.600  19.716  1.00  0.00    +0.023 A 
ATOM     19  C   UNL     1      50.159  50.484  18.512  1.00  0.00    +0.015 A 
ATOM     20 Cl   UNL     1      51.850  51.958  21.812  1.00  0.00    -0.082 Cl
BRANCH  17  21
ATOM     21  C   UNL     1      48.870  51.445  16.625  1.00  0.00    +0.251 C 
ATOM     22  O   UNL     1      48.196  52.365  16.179  1.00  0.00    -0.269 OA
ATOM     23  N   UNL     1      49.049  50.238  15.981  1.00  0.00    -0.355 N 
ATOM     24  C   UNL     1      48.495  50.029  14.665  1.00  0.00    +0.143 C 
ATOM     25  H   UNL     1      49.809  49.637  16.266  1.00  0.00    +0.163 HD
ENDBRANCH  17  21
ENDBRANCH   3  14
TORSDOF 5
ENDMDL
