MODEL 1
REMARK VINA RESULT:    -6.900      0.000      0.000
REMARK INTER + INTRA:          -9.847
REMARK INTER:                  -9.119
REMARK INTRA:                  -0.728
REMARK UNBOUND:                -0.728
REMARK SMILES NC(=O)C[C@@H]([NH3+])C(=O)N1CCN(C[C@@H]2CCCO2)CC1
REMARK SMILES IDX 5 1 7 2 12 3 11 4 19 5 10 6 20 7 9 8 8 9 13 10 14 11 16 12
REMARK SMILES IDX 15 13 17 14 18 15 4 16 2 17 3 18 1 19 6 22
REMARK H PARENT 1 20 1 21 6 23 6 24 6 25
ROOT
ATOM      1  C   UNL     1      51.087  54.095  19.584  1.00  0.00    +0.280 C 
ENDROOT
BRANCH   1   2
ATOM      2  C   UNL     1      51.366  52.771  18.865  1.00  0.00    +0.281 C 
ATOM      3  N   UNL     1      48.288  50.573  17.236  1.00  0.00    -0.297 NA
ATOM      4  C   UNL     1      47.988  51.998  17.418  1.00  0.00    +0.106 C 
ATOM      5  C   UNL     1      49.570  50.361  16.557  1.00  0.00    +0.106 C 
ATOM      6  C   UNL     1      49.236  52.913  17.487  1.00  0.00    +0.135 C 
ATOM      7  C   UNL     1      50.720  50.924  17.416  1.00  0.00    +0.135 C 
ATOM      8  N   UNL     1      50.420  52.231  18.027  1.00  0.00    -0.335 N 
ATOM      9  O   UNL     1      52.450  52.223  19.099  1.00  0.00    -0.268 OA
BRANCH   3  10
ATOM     10  C   UNL     1      47.174  49.797  16.659  1.00  0.00    +0.116 C 
BRANCH  10  11
ATOM     11  C   UNL     1      46.053  49.316  17.606  1.00  0.00    +0.132 C 
ATOM     12  C   UNL     1      45.256  47.532  18.913  1.00  0.00    +0.031 C 
ATOM     13  C   UNL     1      46.538  48.252  18.581  1.00  0.00    +0.036 C 
ATOM     14  C   UNL     1      44.548  47.525  17.577  1.00  0.00    +0.160 C 
ATOM     15  O   UNL     1      44.966  48.709  16.879  1.00  0.00    -0.377 OA
ENDBRANCH  10  11
ENDBRANCH   3  10
ENDBRANCH   1   2
BRANCH   1  16
ATOM     16  C   UNL     1      50.395  53.821  20.923  1.00  0.00    +0.175 C 
BRANCH  16  17
ATOM     17  C   UNL     1      51.418  53.588  21.999  1.00  0.00    +0.223 C 
ATOM     18  O   UNL     1      51.963  54.527  22.576  1.00  0.00    -0.275 OA
ATOM     19  N   UNL     1      51.736  52.295  22.251  1.00  0.00    -0.369 N 
ATOM     20  H   UNL     1      52.463  52.099  22.933  1.00  0.00    +0.159 HD
ATOM     21  H   UNL     1      51.410  51.509  21.700  1.00  0.00    +0.159 HD
ENDBRANCH  16  17
ENDBRANCH   1  16
BRANCH   1  22
ATOM     22  N   UNL     1      52.410  54.795  19.815  1.00  0.00    -0.347 N 
ATOM     23  H   UNL     1      52.446  55.170  20.774  1.00  0.00    +0.345 HD
ATOM     24  H   UNL     1      52.547  55.560  19.127  1.00  0.00    +0.345 HD
ATOM     25  H   UNL     1      53.194  54.138  19.741  1.00  0.00    +0.345 HD
ENDBRANCH   1  22
TORSDOF 6
ENDMDL
MODEL 2
REMARK VINA RESULT:    -6.692      2.675      7.111
REMARK INTER + INTRA:          -9.573
REMARK INTER:                  -8.809
REMARK INTRA:                  -0.764
REMARK UNBOUND:                -0.728
REMARK SMILES NC(=O)C[C@@H]([NH3+])C(=O)N1CCN(C[C@@H]2CCCO2)CC1
REMARK SMILES IDX 5 1 7 2 12 3 11 4 19 5 10 6 20 7 9 8 8 9 13 10 14 11 16 12
REMARK SMILES IDX 15 13 17 14 18 15 4 16 2 17 3 18 1 19 6 22
REMARK H PARENT 1 20 1 21 6 23 6 24 6 25
ROOT
ATOM      1  C   UNL     1      49.468  49.875  18.691  1.00  0.00    +0.280 C 
ENDROOT
BRANCH   1   2
ATOM      2  C   UNL     1      50.559  50.830  18.194  1.00  0.00    +0.281 C 
ATOM      3  N   UNL     1      51.241  54.417  20.100  1.00  0.00    -0.297 NA
ATOM      4  C   UNL     1      50.579  53.403  20.930  1.00  0.00    +0.106 C 
ATOM      5  C   UNL     1      52.430  53.887  19.425  1.00  0.00    +0.106 C 
ATOM      6  C   UNL     1      50.808  51.943  20.464  1.00  0.00    +0.135 C 
ATOM      7  C   UNL     1      52.026  52.754  18.459  1.00  0.00    +0.135 C 
ATOM      8  N   UNL     1      51.025  51.829  19.016  1.00  0.00    -0.335 N 
ATOM      9  O   UNL     1      50.962  50.668  17.036  1.00  0.00    -0.268 OA
BRANCH   3  10
ATOM     10  C   UNL     1      51.471  55.698  20.792  1.00  0.00    +0.116 C 
BRANCH  10  11
ATOM     11  C   UNL     1      50.469  56.848  20.551  1.00  0.00    +0.132 C 
ATOM     12  C   UNL     1      48.542  57.934  21.347  1.00  0.00    +0.031 C 
ATOM     13  C   UNL     1      49.835  57.341  21.846  1.00  0.00    +0.036 C 
ATOM     14  C   UNL     1      48.151  56.959  20.259  1.00  0.00    +0.160 C 
ATOM     15  O   UNL     1      49.371  56.432  19.715  1.00  0.00    -0.377 OA
ENDBRANCH  10  11
ENDBRANCH   3  10
ENDBRANCH   1   2
BRANCH   1  16
ATOM     16  C   UNL     1      48.433  49.651  17.583  1.00  0.00    +0.175 C 
BRANCH  16  17
ATOM     17  C   UNL     1      48.665  48.323  16.916  1.00  0.00    +0.223 C 
ATOM     18  O   UNL     1      48.231  47.281  17.402  1.00  0.00    -0.275 OA
ATOM     19  N   UNL     1      49.417  48.344  15.790  1.00  0.00    -0.369 N 
ATOM     20  H   UNL     1      49.642  47.462  15.341  1.00  0.00    +0.159 HD
ATOM     21  H   UNL     1      49.903  49.163  15.442  1.00  0.00    +0.159 HD
ENDBRANCH  16  17
ENDBRANCH   1  16
BRANCH   1  22
ATOM     22  N   UNL     1      50.124  48.562  19.065  1.00  0.00    -0.347 N 
ATOM     23  H   UNL     1      50.854  48.327  18.377  1.00  0.00    +0.345 HD
ATOM     24  H   UNL     1      49.421  47.801  19.115  1.00  0.00    +0.345 HD
ATOM     25  H   UNL     1      50.602  48.633  19.970  1.00  0.00    +0.345 HD
ENDBRANCH   1  22
TORSDOF 6
ENDMDL
MODEL 3
REMARK VINA RESULT:    -6.613      2.345      2.920
REMARK INTER + INTRA:          -9.468
REMARK INTER:                  -8.769
REMARK INTRA:                  -0.699
REMARK UNBOUND:                -0.728
REMARK SMILES NC(=O)C[C@@H]([NH3+])C(=O)N1CCN(C[C@@H]2CCCO2)CC1
REMARK SMILES IDX 5 1 7 2 12 3 11 4 19 5 10 6 20 7 9 8 8 9 13 10 14 11 16 12
REMARK SMILES IDX 15 13 17 14 18 15 4 16 2 17 3 18 1 19 6 22
REMARK H PARENT 1 20 1 21 6 23 6 24 6 25
ROOT
ATOM      1  C   UNL     1      51.011  55.017  20.196  1.00  0.00    +0.280 C 
ENDROOT
BRANCH   1   2
ATOM      2  C   UNL     1      51.507  53.717  20.839  1.00  0.00    +0.281 C 
ATOM      3  N   UNL     1      50.134  50.063  19.526  1.00  0.00    -0.297 NA
ATOM      4  C   UNL     1      50.011  51.148  18.545  1.00  0.00    +0.106 C 
ATOM      5  C   UNL     1      51.478  49.998  20.111  1.00  0.00    +0.106 C 
ATOM      6  C   UNL     1      50.981  52.333  18.774  1.00  0.00    +0.135 C 
ATOM      7  C   UNL     1      51.778  51.298  20.884  1.00  0.00    +0.135 C 
ATOM      8  N   UNL     1      51.339  52.519  20.186  1.00  0.00    -0.335 N 
ATOM      9  O   UNL     1      52.028  53.808  21.958  1.00  0.00    -0.268 OA
BRANCH   3  10
ATOM     10  C   UNL     1      49.632  48.763  19.045  1.00  0.00    +0.116 C 
BRANCH  10  11
ATOM     11  C   UNL     1      48.461  48.760  18.038  1.00  0.00    +0.132 C 
ATOM     12  C   UNL     1      46.276  48.004  17.614  1.00  0.00    +0.031 C 
ATOM     13  C   UNL     1      47.112  48.587  18.724  1.00  0.00    +0.036 C 
ATOM     14  C   UNL     1      47.263  47.083  16.932  1.00  0.00    +0.160 C 
ATOM     15  O   UNL     1      48.563  47.667  17.104  1.00  0.00    -0.377 OA
ENDBRANCH  10  11
ENDBRANCH   3  10
ENDBRANCH   1   2
BRANCH   1  16
ATOM     16  C   UNL     1      50.464  55.954  21.278  1.00  0.00    +0.175 C 
BRANCH  16  17
ATOM     17  C   UNL     1      51.466  57.030  21.588  1.00  0.00    +0.223 C 
ATOM     18  O   UNL     1      51.561  58.035  20.887  1.00  0.00    -0.275 OA
ATOM     19  N   UNL     1      52.282  56.800  22.645  1.00  0.00    -0.369 N 
ATOM     20  H   UNL     1      53.009  57.478  22.854  1.00  0.00    +0.159 HD
ATOM     21  H   UNL     1      52.323  55.925  23.155  1.00  0.00    +0.159 HD
ENDBRANCH  16  17
ENDBRANCH   1  16
BRANCH   1  22
ATOM     22  N   UNL     1      52.179  55.667  19.485  1.00  0.00    -0.347 N 
ATOM     23  H   UNL     1      52.906  54.964  19.289  1.00  0.00    +0.345 HD
ATOM     24  H   UNL     1      52.573  56.440  20.055  1.00  0.00    +0.345 HD
ATOM     25  H   UNL     1      51.895  56.040  18.572  1.00  0.00    +0.345 HD
ENDBRANCH   1  22
TORSDOF 6
ENDMDL
MODEL 4
REMARK VINA RESULT:    -6.563      2.175      7.621
REMARK INTER + INTRA:          -9.402
REMARK INTER:                  -8.787
REMARK INTRA:                  -0.615
REMARK UNBOUND:                -0.728
REMARK SMILES NC(=O)C[C@@H]([NH3+])C(=O)N1CCN(C[C@@H]2CCCO2)CC1
REMARK SMILES IDX 5 1 7 2 12 3 11 4 19 5 10 6 20 7 9 8 8 9 13 10 14 11 16 12
REMARK SMILES IDX 15 13 17 14 18 15 4 16 2 17 3 18 1 19 6 22
REMARK H PARENT 1 20 1 21 6 23 6 24 6 25
ROOT
ATOM      1  C   UNL     1      48.249  48.923  18.436  1.00  0.00    +0.280 C 
ENDROOT
BRANCH   1   2
ATOM      2  C   UNL     1      48.665  50.300  17.906  1.00  0.00    +0.281 C 
ATOM      3  N   UNL     1      51.068  52.779  20.151  1.00  0.00    -0.297 NA
ATOM      4  C   UNL     1      51.166  51.357  20.500  1.00  0.00    +0.106 C 
ATOM      5  C   UNL     1      51.197  53.003  18.707  1.00  0.00    +0.106 C 
ATOM      6  C   UNL     1      50.740  50.388  19.370  1.00  0.00    +0.135 C 
ATOM      7  C   UNL     1      50.040  52.308  17.962  1.00  0.00    +0.135 C 
ATOM      8  N   UNL     1      49.730  50.961  18.471  1.00  0.00    -0.335 N 
ATOM      9  O   UNL     1      47.988  50.774  16.986  1.00  0.00    -0.268 OA
BRANCH   3  10
ATOM     10  C   UNL     1      51.928  53.656  20.967  1.00  0.00    +0.116 C 
BRANCH  10  11
ATOM     11  C   UNL     1      51.257  54.793  21.770  1.00  0.00    +0.132 C 
ATOM     12  C   UNL     1      50.178  56.878  21.639  1.00  0.00    +0.031 C 
ATOM     13  C   UNL     1      50.211  55.538  20.950  1.00  0.00    +0.036 C 
ATOM     14  C   UNL     1      51.638  57.092  21.971  1.00  0.00    +0.160 C 
ATOM     15  O   UNL     1      52.213  55.792  22.178  1.00  0.00    -0.377 OA
ENDBRANCH  10  11
ENDBRANCH   3  10
ENDBRANCH   1   2
BRANCH   1  16
ATOM     16  C   UNL     1      46.734  48.749  18.293  1.00  0.00    +0.175 C 
BRANCH  16  17
ATOM     17  C   UNL     1      46.420  47.886  17.102  1.00  0.00    +0.223 C 
ATOM     18  O   UNL     1      46.483  46.661  17.168  1.00  0.00    -0.275 OA
ATOM     19  N   UNL     1      46.118  48.540  15.954  1.00  0.00    -0.369 N 
ATOM     20  H   UNL     1      45.954  47.993  15.114  1.00  0.00    +0.159 HD
ATOM     21  H   UNL     1      46.193  49.543  15.832  1.00  0.00    +0.159 HD
ENDBRANCH  16  17
ENDBRANCH   1  16
BRANCH   1  22
ATOM     22  N   UNL     1      48.974  47.867  17.628  1.00  0.00    -0.347 N 
ATOM     23  H   UNL     1      48.294  47.313  17.087  1.00  0.00    +0.345 HD
ATOM     24  H   UNL     1      49.531  47.248  18.246  1.00  0.00    +0.345 HD
ATOM     25  H   UNL     1      49.600  48.296  16.937  1.00  0.00    +0.345 HD
ENDBRANCH   1  22
TORSDOF 6
ENDMDL
MODEL 5
REMARK VINA RESULT:    -6.304      2.222      7.396
REMARK INTER + INTRA:          -9.059
REMARK INTER:                  -8.393
REMARK INTRA:                  -0.666
REMARK UNBOUND:                -0.728
REMARK SMILES NC(=O)C[C@@H]([NH3+])C(=O)N1CCN(C[C@@H]2CCCO2)CC1
REMARK SMILES IDX 5 1 7 2 12 3 11 4 19 5 10 6 20 7 9 8 8 9 13 10 14 11 16 12
REMARK SMILES IDX 15 13 17 14 18 15 4 16 2 17 3 18 1 19 6 22
REMARK H PARENT 1 20 1 21 6 23 6 24 6 25
ROOT
ATOM      1  C   UNL     1      47.467  48.089  17.794  1.00  0.00    +0.280 C 
ENDROOT
BRANCH   1   2
ATOM      2  C   UNL     1      48.309  49.280  17.323  1.00  0.00    +0.281 C 
ATOM      3  N   UNL     1      50.918  51.159  19.897  1.00  0.00    -0.297 NA
ATOM      4  C   UNL     1      50.580  49.781  20.272  1.00  0.00    +0.106 C 
ATOM      5  C   UNL     1      51.318  51.266  18.490  1.00  0.00    +0.106 C 
ATOM      6  C   UNL     1      50.087  48.899  19.098  1.00  0.00    +0.135 C 
ATOM      7  C   UNL     1      50.145  50.859  17.576  1.00  0.00    +0.135 C 
ATOM      8  N   UNL     1      49.414  49.669  18.044  1.00  0.00    -0.335 N 
ATOM      9  O   UNL     1      47.930  49.867  16.302  1.00  0.00    -0.268 OA
BRANCH   3  10
ATOM     10  C   UNL     1      51.847  51.822  20.831  1.00  0.00    +0.116 C 
BRANCH  10  11
ATOM     11  C   UNL     1      51.676  53.338  21.076  1.00  0.00    +0.132 C 
ATOM     12  C   UNL     1      50.383  55.242  20.599  1.00  0.00    +0.031 C 
ATOM     13  C   UNL     1      50.226  53.784  20.945  1.00  0.00    +0.036 C 
ATOM     14  C   UNL     1      51.588  55.216  19.685  1.00  0.00    +0.160 C 
ATOM     15  O   UNL     1      52.410  54.119  20.113  1.00  0.00    -0.377 OA
ENDBRANCH  10  11
ENDBRANCH   3  10
ENDBRANCH   1   2
BRANCH   1  16
ATOM     16  C   UNL     1      46.152  48.593  18.399  1.00  0.00    +0.175 C 
BRANCH  16  17
ATOM     17  C   UNL     1      44.990  47.836  17.819  1.00  0.00    +0.223 C 
ATOM     18  O   UNL     1      44.490  48.160  16.744  1.00  0.00    -0.275 OA
ATOM     19  N   UNL     1      44.501  46.822  18.573  1.00  0.00    -0.369 N 
ATOM     20  H   UNL     1      43.682  46.322  18.241  1.00  0.00    +0.159 HD
ATOM     21  H   UNL     1      44.799  46.620  19.521  1.00  0.00    +0.159 HD
ENDBRANCH  16  17
ENDBRANCH   1  16
BRANCH   1  22
ATOM     22  N   UNL     1      47.185  47.207  16.596  1.00  0.00    -0.347 N 
ATOM     23  H   UNL     1      46.532  47.682  15.956  1.00  0.00    +0.345 HD
ATOM     24  H   UNL     1      46.793  46.294  16.895  1.00  0.00    +0.345 HD
ATOM     25  H   UNL     1      48.039  47.039  16.052  1.00  0.00    +0.345 HD
ENDBRANCH   1  22
TORSDOF 6
ENDMDL
