MODEL 1
REMARK VINA RESULT:    -6.803      0.000      0.000
REMARK INTER + INTRA:          -9.379
REMARK INTER:                  -8.593
REMARK INTRA:                  -0.786
REMARK UNBOUND:                -0.786
REMARK SMILES Cc1[nH]ncc1S(=O)(=O)[N-]c1ncc(C#CC[NH3+])s1
REMARK SMILES IDX 11 1 12 2 13 3 14 4 19 5 15 6 10 7 7 8 8 9 9 10 6 11 2 12
REMARK SMILES IDX 3 13 5 14 4 15 1 16 16 18 17 19 18 20
REMARK H PARENT 3 17 18 21 18 22 18 23
ROOT
ATOM      1  C   UNL     1      52.287  55.604  20.934  1.00  0.00    +0.008 A 
ATOM      2  N   UNL     1      52.785  56.694  20.381  1.00  0.00    -0.432 NA
ATOM      3  C   UNL     1      52.072  57.789  20.840  1.00  0.00    +0.007 A 
ATOM      4  C   UNL     1      51.064  57.462  21.721  1.00  0.00    +0.073 A 
ATOM      5  S   UNL     1      51.394  55.911  22.382  1.00  0.00    -0.136 S 
ATOM      6  C   UNL     1      49.756  58.001  21.724  1.00  0.00    -0.051 C 
ENDROOT
BRANCH   1   7
ATOM      7  N   UNL     1      52.390  54.344  20.456  1.00  0.00    -0.343 NA
BRANCH   7   8
ATOM      8  S   UNL     1      50.987  53.864  19.846  1.00  0.00    +0.206 S 
ATOM      9  O   UNL     1      50.116  53.128  20.754  1.00  0.00    -0.221 OA
ATOM     10  O   UNL     1      50.268  54.775  18.937  1.00  0.00    -0.221 OA
BRANCH   8  11
ATOM     11  C   UNL     1      51.359  52.585  18.725  1.00  0.00    +0.110 A 
ATOM     12  C   UNL     1      50.540  51.777  17.962  1.00  0.00    +0.051 A 
ATOM     13  N   UNL     1      51.393  50.941  17.291  1.00  0.00    -0.281 N 
ATOM     14  C   UNL     1      52.667  52.210  18.375  1.00  0.00    +0.155 A 
ATOM     15  N   UNL     1      52.699  51.163  17.547  1.00  0.00    -0.183 NA
ATOM     16  C   UNL     1      49.073  51.697  17.787  1.00  0.00    +0.067 C 
ATOM     17  H   UNL     1      51.150  50.204  16.640  1.00  0.00    +0.190 HD
ENDBRANCH   8  11
ENDBRANCH   7   8
ENDBRANCH   1   7
BRANCH   6  18
ATOM     18  C   UNL     1      48.621  57.918  21.346  1.00  0.00    -0.037 C 
ATOM     19  C   UNL     1      47.514  57.504  20.502  1.00  0.00    +0.351 C 
BRANCH  19  20
ATOM     20  N   UNL     1      48.101  57.058  19.225  1.00  0.00    -0.347 N 
ATOM     21  H   UNL     1      49.103  57.226  19.126  1.00  0.00    +0.345 HD
ATOM     22  H   UNL     1      47.906  56.073  19.014  1.00  0.00    +0.345 HD
ATOM     23  H   UNL     1      47.669  57.531  18.388  1.00  0.00    +0.345 HD
ENDBRANCH  19  20
ENDBRANCH   6  18
TORSDOF 5
ENDMDL
MODEL 2
REMARK VINA RESULT:    -6.591      1.549      2.052
REMARK INTER + INTRA:          -9.111
REMARK INTER:                  -8.781
REMARK INTRA:                  -0.331
REMARK UNBOUND:                -0.786
REMARK SMILES Cc1[nH]ncc1S(=O)(=O)[N-]c1ncc(C#CC[NH3+])s1
REMARK SMILES IDX 11 1 12 2 13 3 14 4 19 5 15 6 10 7 7 8 8 9 9 10 6 11 2 12
REMARK SMILES IDX 3 13 5 14 4 15 1 16 16 18 17 19 18 20
REMARK H PARENT 3 17 18 21 18 22 18 23
ROOT
ATOM      1  C   UNL     1      52.079  54.784  20.838  1.00  0.00    +0.008 A 
ATOM      2  N   UNL     1      52.587  55.711  20.048  1.00  0.00    -0.432 NA
ATOM      3  C   UNL     1      52.058  56.939  20.410  1.00  0.00    +0.007 A 
ATOM      4  C   UNL     1      51.170  56.869  21.461  1.00  0.00    +0.073 A 
ATOM      5  S   UNL     1      51.451  55.409  22.322  1.00  0.00    -0.136 S 
ATOM      6  C   UNL     1      49.933  57.551  21.552  1.00  0.00    -0.051 C 
ENDROOT
BRANCH   1   7
ATOM      7  N   UNL     1      51.991  53.462  20.569  1.00  0.00    -0.343 NA
BRANCH   7   8
ATOM      8  S   UNL     1      51.694  53.232  19.011  1.00  0.00    +0.206 S 
ATOM      9  O   UNL     1      50.575  53.985  18.457  1.00  0.00    -0.221 OA
ATOM     10  O   UNL     1      52.837  53.097  18.090  1.00  0.00    -0.221 OA
BRANCH   8  11
ATOM     11  C   UNL     1      51.035  51.626  18.877  1.00  0.00    +0.110 A 
ATOM     12  C   UNL     1      51.552  50.397  19.237  1.00  0.00    +0.051 A 
ATOM     13  N   UNL     1      50.594  49.489  18.871  1.00  0.00    -0.281 N 
ATOM     14  C   UNL     1      49.746  51.348  18.391  1.00  0.00    +0.155 A 
ATOM     15  N   UNL     1      49.491  50.039  18.324  1.00  0.00    -0.183 NA
ATOM     16  C   UNL     1      52.819  49.978  19.876  1.00  0.00    +0.067 C 
ATOM     17  H   UNL     1      50.626  48.481  18.974  1.00  0.00    +0.190 HD
ENDBRANCH   8  11
ENDBRANCH   7   8
ENDBRANCH   1   7
BRANCH   6  18
ATOM     18  C   UNL     1      48.752  57.545  21.350  1.00  0.00    -0.037 C 
ATOM     19  C   UNL     1      47.509  57.798  20.642  1.00  0.00    +0.351 C 
BRANCH  19  20
ATOM     20  N   UNL     1      47.797  58.849  19.649  1.00  0.00    -0.347 N 
ATOM     21  H   UNL     1      47.305  59.732  19.796  1.00  0.00    +0.345 HD
ATOM     22  H   UNL     1      48.799  59.040  19.543  1.00  0.00    +0.345 HD
ATOM     23  H   UNL     1      47.543  58.565  18.666  1.00  0.00    +0.345 HD
ENDBRANCH  19  20
ENDBRANCH   6  18
TORSDOF 5
ENDMDL
MODEL 3
REMARK VINA RESULT:    -6.424      2.056      6.003
REMARK INTER + INTRA:          -8.900
REMARK INTER:                  -8.024
REMARK INTRA:                  -0.876
REMARK UNBOUND:                -0.786
REMARK SMILES Cc1[nH]ncc1S(=O)(=O)[N-]c1ncc(C#CC[NH3+])s1
REMARK SMILES IDX 11 1 12 2 13 3 14 4 19 5 15 6 10 7 7 8 8 9 9 10 6 11 2 12
REMARK SMILES IDX 3 13 5 14 4 15 1 16 16 18 17 19 18 20
REMARK H PARENT 3 17 18 21 18 22 18 23
ROOT
ATOM      1  C   UNL     1      52.004  52.804  20.887  1.00  0.00    +0.008 A 
ATOM      2  N   UNL     1      51.565  51.953  21.796  1.00  0.00    -0.432 NA
ATOM      3  C   UNL     1      51.103  50.817  21.151  1.00  0.00    +0.007 A 
ATOM      4  C   UNL     1      51.217  50.875  19.780  1.00  0.00    +0.073 A 
ATOM      5  S   UNL     1      52.394  52.060  19.376  1.00  0.00    -0.136 S 
ATOM      6  C   UNL     1      50.239  50.461  18.845  1.00  0.00    -0.051 C 
ENDROOT
BRANCH   1   7
ATOM      7  N   UNL     1      52.130  54.141  21.036  1.00  0.00    -0.343 NA
BRANCH   7   8
ATOM      8  S   UNL     1      51.089  54.906  20.087  1.00  0.00    +0.206 S 
ATOM      9  O   UNL     1      51.654  55.540  18.902  1.00  0.00    -0.221 OA
ATOM     10  O   UNL     1      49.764  54.299  19.865  1.00  0.00    -0.221 OA
BRANCH   8  11
ATOM     11  C   UNL     1      50.602  56.334  20.956  1.00  0.00    +0.110 A 
ATOM     12  C   UNL     1      51.343  57.300  21.606  1.00  0.00    +0.051 A 
ATOM     13  N   UNL     1      50.417  58.168  22.124  1.00  0.00    -0.281 N 
ATOM     14  C   UNL     1      49.268  56.760  21.072  1.00  0.00    +0.155 A 
ATOM     15  N   UNL     1      49.139  57.846  21.838  1.00  0.00    -0.183 NA
ATOM     16  C   UNL     1      52.796  57.507  21.797  1.00  0.00    +0.067 C 
ATOM     17  H   UNL     1      50.591  59.001  22.673  1.00  0.00    +0.190 HD
ENDBRANCH   8  11
ENDBRANCH   7   8
ENDBRANCH   1   7
BRANCH   6  18
ATOM     18  C   UNL     1      49.294  50.750  18.168  1.00  0.00    -0.037 C 
ATOM     19  C   UNL     1      48.473  51.559  17.283  1.00  0.00    +0.351 C 
BRANCH  19  20
ATOM     20  N   UNL     1      48.977  52.940  17.385  1.00  0.00    -0.347 N 
ATOM     21  H   UNL     1      48.340  53.604  17.827  1.00  0.00    +0.345 HD
ATOM     22  H   UNL     1      49.893  53.002  17.845  1.00  0.00    +0.345 HD
ATOM     23  H   UNL     1      49.196  53.368  16.447  1.00  0.00    +0.345 HD
ENDBRANCH  19  20
ENDBRANCH   6  18
TORSDOF 5
ENDMDL
MODEL 4
REMARK VINA RESULT:    -6.406      5.031      7.231
REMARK INTER + INTRA:          -8.877
REMARK INTER:                  -8.451
REMARK INTRA:                  -0.426
REMARK UNBOUND:                -0.786
REMARK SMILES Cc1[nH]ncc1S(=O)(=O)[N-]c1ncc(C#CC[NH3+])s1
REMARK SMILES IDX 11 1 12 2 13 3 14 4 19 5 15 6 10 7 7 8 8 9 9 10 6 11 2 12
REMARK SMILES IDX 3 13 5 14 4 15 1 16 16 18 17 19 18 20
REMARK H PARENT 3 17 18 21 18 22 18 23
ROOT
ATOM      1  C   UNL     1      48.463  50.773  17.681  1.00  0.00    +0.008 A 
ATOM      2  N   UNL     1      48.079  51.993  17.352  1.00  0.00    -0.432 NA
ATOM      3  C   UNL     1      49.103  52.876  17.651  1.00  0.00    +0.007 A 
ATOM      4  C   UNL     1      50.213  52.270  18.197  1.00  0.00    +0.073 A 
ATOM      5  S   UNL     1      50.179  50.599  17.797  1.00  0.00    -0.136 S 
ATOM      6  C   UNL     1      50.968  52.749  19.293  1.00  0.00    -0.051 C 
ENDROOT
BRANCH   1   7
ATOM      7  N   UNL     1      47.656  49.724  17.952  1.00  0.00    -0.343 NA
BRANCH   7   8
ATOM      8  S   UNL     1      47.625  48.712  16.709  1.00  0.00    +0.206 S 
ATOM      9  O   UNL     1      47.711  49.322  15.388  1.00  0.00    -0.221 OA
ATOM     10  O   UNL     1      48.352  47.434  16.825  1.00  0.00    -0.221 OA
BRANCH   8  11
ATOM     11  C   UNL     1      45.997  48.101  16.624  1.00  0.00    +0.110 A 
ATOM     12  C   UNL     1      45.168  47.580  17.597  1.00  0.00    +0.051 A 
ATOM     13  N   UNL     1      44.015  47.246  16.938  1.00  0.00    -0.281 N 
ATOM     14  C   UNL     1      45.220  48.110  15.453  1.00  0.00    +0.155 A 
ATOM     15  N   UNL     1      44.029  47.532  15.620  1.00  0.00    -0.183 NA
ATOM     16  C   UNL     1      45.325  47.364  19.053  1.00  0.00    +0.067 C 
ATOM     17  H   UNL     1      43.178  46.828  17.330  1.00  0.00    +0.190 HD
ENDBRANCH   8  11
ENDBRANCH   7   8
ENDBRANCH   1   7
BRANCH   6  18
ATOM     18  C   UNL     1      51.145  52.759  20.478  1.00  0.00    -0.037 C 
ATOM     19  C   UNL     1      51.647  52.309  21.765  1.00  0.00    +0.351 C 
BRANCH  19  20
ATOM     20  N   UNL     1      52.029  50.895  21.596  1.00  0.00    -0.347 N 
ATOM     21  H   UNL     1      51.875  50.303  22.414  1.00  0.00    +0.345 HD
ATOM     22  H   UNL     1      51.592  50.454  20.779  1.00  0.00    +0.345 HD
ATOM     23  H   UNL     1      53.050  50.770  21.367  1.00  0.00    +0.345 HD
ENDBRANCH  19  20
ENDBRANCH   6  18
TORSDOF 5
ENDMDL
MODEL 5
REMARK VINA RESULT:    -6.379      2.428      6.453
REMARK INTER + INTRA:          -8.843
REMARK INTER:                  -8.532
REMARK INTRA:                  -0.311
REMARK UNBOUND:                -0.786
REMARK SMILES Cc1[nH]ncc1S(=O)(=O)[N-]c1ncc(C#CC[NH3+])s1
REMARK SMILES IDX 11 1 12 2 13 3 14 4 19 5 15 6 10 7 7 8 8 9 9 10 6 11 2 12
REMARK SMILES IDX 3 13 5 14 4 15 1 16 16 18 17 19 18 20
REMARK H PARENT 3 17 18 21 18 22 18 23
ROOT
ATOM      1  C   UNL     1      50.503  52.371  19.612  1.00  0.00    +0.008 A 
ATOM      2  N   UNL     1      51.326  51.487  20.145  1.00  0.00    -0.432 NA
ATOM      3  C   UNL     1      51.094  50.255  19.557  1.00  0.00    +0.007 A 
ATOM      4  C   UNL     1      50.098  50.276  18.605  1.00  0.00    +0.073 A 
ATOM      5  S   UNL     1      49.883  51.894  18.070  1.00  0.00    -0.136 S 
ATOM      6  C   UNL     1      49.080  49.306  18.445  1.00  0.00    -0.051 C 
ENDROOT
BRANCH   1   7
ATOM      7  N   UNL     1      50.106  53.536  20.170  1.00  0.00    -0.343 NA
BRANCH   7   8
ATOM      8  S   UNL     1      50.749  54.776  19.383  1.00  0.00    +0.206 S 
ATOM      9  O   UNL     1      52.057  54.541  18.783  1.00  0.00    -0.221 OA
ATOM     10  O   UNL     1      49.863  55.627  18.568  1.00  0.00    -0.221 OA
BRANCH   8  11
ATOM     11  C   UNL     1      51.210  55.934  20.599  1.00  0.00    +0.110 A 
ATOM     12  C   UNL     1      50.463  56.852  21.310  1.00  0.00    +0.051 A 
ATOM     13  N   UNL     1      51.368  57.502  22.107  1.00  0.00    -0.281 N 
ATOM     14  C   UNL     1      52.515  56.059  21.103  1.00  0.00    +0.155 A 
ATOM     15  N   UNL     1      52.635  57.059  21.981  1.00  0.00    -0.183 NA
ATOM     16  C   UNL     1      49.022  57.187  21.333  1.00  0.00    +0.067 C 
ATOM     17  H   UNL     1      51.185  58.251  22.765  1.00  0.00    +0.190 HD
ENDBRANCH   8  11
ENDBRANCH   7   8
ENDBRANCH   1   7
BRANCH   6  18
ATOM     18  C   UNL     1      47.971  48.942  18.718  1.00  0.00    -0.037 C 
ATOM     19  C   UNL     1      46.596  48.538  18.485  1.00  0.00    +0.351 C 
BRANCH  19  20
ATOM     20  N   UNL     1      46.242  49.006  17.133  1.00  0.00    -0.347 N 
ATOM     21  H   UNL     1      46.544  49.954  16.908  1.00  0.00    +0.345 HD
ATOM     22  H   UNL     1      46.558  48.371  16.391  1.00  0.00    +0.345 HD
ATOM     23  H   UNL     1      45.202  49.011  16.959  1.00  0.00    +0.345 HD
ENDBRANCH  19  20
ENDBRANCH   6  18
TORSDOF 5
ENDMDL
