MODEL 1
REMARK VINA RESULT:    -6.936      0.000      0.000
REMARK INTER + INTRA:          -9.983
REMARK INTER:                  -9.166
REMARK INTRA:                  -0.817
REMARK UNBOUND:                -0.817
REMARK SMILES NC(=O)C[C@H]([NH3+])C(=O)N1CCN(C[C@H]2CCCO2)CC1
REMARK SMILES IDX 5 1 7 2 12 3 11 4 19 5 10 6 20 7 9 8 8 9 13 10 14 11 16 12
REMARK SMILES IDX 15 13 17 14 18 15 4 16 2 17 3 18 1 19 6 22
REMARK H PARENT 1 20 1 21 6 23 6 24 6 25
ROOT
ATOM      1  C   UNL     1      51.471  56.967  20.980  1.00  0.00    +0.280 C 
ENDROOT
BRANCH   1   2
ATOM      2  C   UNL     1      51.669  55.499  21.387  1.00  0.00    +0.281 C 
ATOM      3  N   UNL     1      51.102  52.433  18.470  1.00  0.00    -0.297 NA
ATOM      4  C   UNL     1      49.972  53.335  18.724  1.00  0.00    +0.106 C 
ATOM      5  C   UNL     1      51.872  52.162  19.710  1.00  0.00    +0.106 C 
ATOM      6  C   UNL     1      50.466  54.668  19.325  1.00  0.00    +0.135 C 
ATOM      7  C   UNL     1      51.576  53.103  20.902  1.00  0.00    +0.135 C 
ATOM      8  N   UNL     1      51.329  54.492  20.506  1.00  0.00    -0.335 N 
ATOM      9  O   UNL     1      52.136  55.289  22.516  1.00  0.00    -0.268 OA
BRANCH   3  10
ATOM     10  C   UNL     1      50.651  51.171  17.827  1.00  0.00    +0.116 C 
BRANCH  10  11
ATOM     11  C   UNL     1      49.249  50.658  18.227  1.00  0.00    +0.132 C 
ATOM     12  C   UNL     1      47.237  49.571  17.726  1.00  0.00    +0.031 C 
ATOM     13  C   UNL     1      48.268  50.464  17.074  1.00  0.00    +0.036 C 
ATOM     14  C   UNL     1      48.100  48.655  18.582  1.00  0.00    +0.160 C 
ATOM     15  O   UNL     1      49.289  49.394  18.927  1.00  0.00    -0.377 OA
ENDBRANCH  10  11
ENDBRANCH   3  10
ENDBRANCH   1   2
BRANCH   1  16
ATOM     16  C   UNL     1      52.831  57.605  20.662  1.00  0.00    +0.175 C 
BRANCH  16  17
ATOM     17  C   UNL     1      53.356  58.376  21.845  1.00  0.00    +0.223 C 
ATOM     18  O   UNL     1      52.991  59.527  22.074  1.00  0.00    -0.275 OA
ATOM     19  N   UNL     1      54.212  57.716  22.659  1.00  0.00    -0.369 N 
ATOM     20  H   UNL     1      54.452  56.734  22.566  1.00  0.00    +0.159 HD
ATOM     21  H   UNL     1      54.554  58.188  23.493  1.00  0.00    +0.159 HD
ENDBRANCH  16  17
ENDBRANCH   1  16
BRANCH   1  22
ATOM     22  N   UNL     1      50.786  57.674  22.133  1.00  0.00    -0.347 N 
ATOM     23  H   UNL     1      49.907  58.108  21.812  1.00  0.00    +0.345 HD
ATOM     24  H   UNL     1      51.373  58.438  22.488  1.00  0.00    +0.345 HD
ATOM     25  H   UNL     1      50.589  57.013  22.910  1.00  0.00    +0.345 HD
ENDBRANCH   1  22
TORSDOF 6
ENDMDL
MODEL 2
REMARK VINA RESULT:    -6.751      1.792      2.045
REMARK INTER + INTRA:          -9.738
REMARK INTER:                  -9.190
REMARK INTRA:                  -0.548
REMARK UNBOUND:                -0.817
REMARK SMILES NC(=O)C[C@H]([NH3+])C(=O)N1CCN(C[C@H]2CCCO2)CC1
REMARK SMILES IDX 5 1 7 2 12 3 11 4 19 5 10 6 20 7 9 8 8 9 13 10 14 11 16 12
REMARK SMILES IDX 15 13 17 14 18 15 4 16 2 17 3 18 1 19 6 22
REMARK H PARENT 1 20 1 21 6 23 6 24 6 25
ROOT
ATOM      1  C   UNL     1      51.491  55.915  21.918  1.00  0.00    +0.280 C 
ENDROOT
BRANCH   1   2
ATOM      2  C   UNL     1      51.359  54.459  21.444  1.00  0.00    +0.281 C 
ATOM      3  N   UNL     1      49.301  53.634  17.795  1.00  0.00    -0.297 NA
ATOM      4  C   UNL     1      48.559  54.355  18.836  1.00  0.00    +0.106 C 
ATOM      5  C   UNL     1      50.229  52.634  18.381  1.00  0.00    +0.106 C 
ATOM      6  C   UNL     1      49.531  55.061  19.806  1.00  0.00    +0.135 C 
ATOM      7  C   UNL     1      50.490  52.772  19.900  1.00  0.00    +0.135 C 
ATOM      8  N   UNL     1      50.558  54.162  20.360  1.00  0.00    -0.335 N 
ATOM      9  O   UNL     1      51.996  53.605  22.077  1.00  0.00    -0.268 OA
BRANCH   3  10
ATOM     10  C   UNL     1      48.380  53.006  16.812  1.00  0.00    +0.116 C 
BRANCH  10  11
ATOM     11  C   UNL     1      48.346  51.462  16.791  1.00  0.00    +0.132 C 
ATOM     12  C   UNL     1      47.185  49.432  16.655  1.00  0.00    +0.031 C 
ATOM     13  C   UNL     1      47.020  50.829  17.208  1.00  0.00    +0.036 C 
ATOM     14  C   UNL     1      47.896  49.691  15.334  1.00  0.00    +0.160 C 
ATOM     15  O   UNL     1      48.654  50.907  15.493  1.00  0.00    -0.377 OA
ENDBRANCH  10  11
ENDBRANCH   3  10
ENDBRANCH   1   2
BRANCH   1  16
ATOM     16  C   UNL     1      52.493  56.661  21.026  1.00  0.00    +0.175 C 
BRANCH  16  17
ATOM     17  C   UNL     1      53.266  57.684  21.817  1.00  0.00    +0.223 C 
ATOM     18  O   UNL     1      54.414  57.465  22.200  1.00  0.00    -0.275 OA
ATOM     19  N   UNL     1      52.644  58.865  22.040  1.00  0.00    -0.369 N 
ATOM     20  H   UNL     1      51.744  59.123  21.648  1.00  0.00    +0.159 HD
ATOM     21  H   UNL     1      53.151  59.597  22.532  1.00  0.00    +0.159 HD
ENDBRANCH  16  17
ENDBRANCH   1  16
BRANCH   1  22
ATOM     22  N   UNL     1      51.952  55.887  23.362  1.00  0.00    -0.347 N 
ATOM     23  H   UNL     1      52.518  56.723  23.570  1.00  0.00    +0.345 HD
ATOM     24  H   UNL     1      52.560  55.076  23.531  1.00  0.00    +0.345 HD
ATOM     25  H   UNL     1      51.142  55.839  24.010  1.00  0.00    +0.345 HD
ENDBRANCH   1  22
TORSDOF 6
ENDMDL
MODEL 3
REMARK VINA RESULT:    -6.637      1.863      2.530
REMARK INTER + INTRA:          -9.589
REMARK INTER:                  -9.157
REMARK INTRA:                  -0.432
REMARK UNBOUND:                -0.817
REMARK SMILES NC(=O)C[C@H]([NH3+])C(=O)N1CCN(C[C@H]2CCCO2)CC1
REMARK SMILES IDX 5 1 7 2 12 3 11 4 19 5 10 6 20 7 9 8 8 9 13 10 14 11 16 12
REMARK SMILES IDX 15 13 17 14 18 15 4 16 2 17 3 18 1 19 6 22
REMARK H PARENT 1 20 1 21 6 23 6 24 6 25
ROOT
ATOM      1  C   UNL     1      51.168  56.019  21.924  1.00  0.00    +0.280 C 
ENDROOT
BRANCH   1   2
ATOM      2  C   UNL     1      51.988  55.288  20.851  1.00  0.00    +0.281 C 
ATOM      3  N   UNL     1      50.576  51.552  19.338  1.00  0.00    -0.297 NA
ATOM      4  C   UNL     1      50.797  51.650  20.786  1.00  0.00    +0.106 C 
ATOM      5  C   UNL     1      51.577  52.344  18.580  1.00  0.00    +0.106 C 
ATOM      6  C   UNL     1      50.744  53.123  21.246  1.00  0.00    +0.135 C 
ATOM      7  C   UNL     1      52.404  53.353  19.412  1.00  0.00    +0.135 C 
ATOM      8  N   UNL     1      51.634  54.007  20.474  1.00  0.00    -0.335 N 
ATOM      9  O   UNL     1      52.949  55.901  20.365  1.00  0.00    -0.268 OA
BRANCH   3  10
ATOM     10  C   UNL     1      50.554  50.136  18.890  1.00  0.00    +0.116 C 
BRANCH  10  11
ATOM     11  C   UNL     1      49.346  49.706  18.027  1.00  0.00    +0.132 C 
ATOM     12  C   UNL     1      47.093  49.114  17.794  1.00  0.00    +0.031 C 
ATOM     13  C   UNL     1      48.234  48.972  18.774  1.00  0.00    +0.036 C 
ATOM     14  C   UNL     1      47.296  50.527  17.265  1.00  0.00    +0.160 C 
ATOM     15  O   UNL     1      48.705  50.815  17.359  1.00  0.00    -0.377 OA
ENDBRANCH  10  11
ENDBRANCH   3  10
ENDBRANCH   1   2
BRANCH   1  16
ATOM     16  C   UNL     1      50.838  57.440  21.445  1.00  0.00    +0.175 C 
BRANCH  16  17
ATOM     17  C   UNL     1      49.376  57.749  21.635  1.00  0.00    +0.223 C 
ATOM     18  O   UNL     1      48.506  57.142  21.014  1.00  0.00    -0.275 OA
ATOM     19  N   UNL     1      49.077  58.695  22.556  1.00  0.00    -0.369 N 
ATOM     20  H   UNL     1      49.757  59.139  23.165  1.00  0.00    +0.159 HD
ATOM     21  H   UNL     1      48.098  58.899  22.745  1.00  0.00    +0.159 HD
ENDBRANCH  16  17
ENDBRANCH   1  16
BRANCH   1  22
ATOM     22  N   UNL     1      51.996  56.045  23.194  1.00  0.00    -0.347 N 
ATOM     23  H   UNL     1      51.509  56.584  23.925  1.00  0.00    +0.345 HD
ATOM     24  H   UNL     1      52.892  56.520  23.032  1.00  0.00    +0.345 HD
ATOM     25  H   UNL     1      52.185  55.081  23.534  1.00  0.00    +0.345 HD
ENDBRANCH   1  22
TORSDOF 6
ENDMDL
MODEL 4
REMARK VINA RESULT:    -6.587      3.151      8.543
REMARK INTER + INTRA:          -9.522
REMARK INTER:                  -8.942
REMARK INTRA:                  -0.580
REMARK UNBOUND:                -0.817
REMARK SMILES NC(=O)C[C@H]([NH3+])C(=O)N1CCN(C[C@H]2CCCO2)CC1
REMARK SMILES IDX 5 1 7 2 12 3 11 4 19 5 10 6 20 7 9 8 8 9 13 10 14 11 16 12
REMARK SMILES IDX 15 13 17 14 18 15 4 16 2 17 3 18 1 19 6 22
REMARK H PARENT 1 20 1 21 6 23 6 24 6 25
ROOT
ATOM      1  C   UNL     1      47.267  49.074  17.722  1.00  0.00    +0.280 C 
ENDROOT
BRANCH   1   2
ATOM      2  C   UNL     1      48.666  49.381  18.276  1.00  0.00    +0.281 C 
ATOM      3  N   UNL     1      49.764  53.440  19.022  1.00  0.00    -0.297 NA
ATOM      4  C   UNL     1      49.348  53.098  17.657  1.00  0.00    +0.106 C 
ATOM      5  C   UNL     1      50.511  52.327  19.659  1.00  0.00    +0.106 C 
ATOM      6  C   UNL     1      48.474  51.825  17.659  1.00  0.00    +0.135 C 
ATOM      7  C   UNL     1      50.414  50.958  18.944  1.00  0.00    +0.135 C 
ATOM      8  N   UNL     1      49.094  50.691  18.365  1.00  0.00    -0.335 N 
ATOM      9  O   UNL     1      49.356  48.413  18.624  1.00  0.00    -0.268 OA
BRANCH   3  10
ATOM     10  C   UNL     1      50.549  54.702  19.046  1.00  0.00    +0.116 C 
BRANCH  10  11
ATOM     11  C   UNL     1      49.775  55.986  19.421  1.00  0.00    +0.132 C 
ATOM     12  C   UNL     1      48.074  57.095  20.586  1.00  0.00    +0.031 C 
ATOM     13  C   UNL     1      48.345  55.771  19.911  1.00  0.00    +0.036 C 
ATOM     14  C   UNL     1      49.412  57.401  21.244  1.00  0.00    +0.160 C 
ATOM     15  O   UNL     1      50.430  56.761  20.449  1.00  0.00    -0.377 OA
ENDBRANCH  10  11
ENDBRANCH   3  10
ENDBRANCH   1   2
BRANCH   1  16
ATOM     16  C   UNL     1      46.513  48.158  18.696  1.00  0.00    +0.175 C 
BRANCH  16  17
ATOM     17  C   UNL     1      45.130  47.849  18.189  1.00  0.00    +0.223 C 
ATOM     18  O   UNL     1      44.613  48.511  17.291  1.00  0.00    -0.275 OA
ATOM     19  N   UNL     1      44.512  46.779  18.742  1.00  0.00    -0.369 N 
ATOM     20  H   UNL     1      44.947  46.144  19.405  1.00  0.00    +0.159 HD
ATOM     21  H   UNL     1      43.594  46.512  18.393  1.00  0.00    +0.159 HD
ENDBRANCH  16  17
ENDBRANCH   1  16
BRANCH   1  22
ATOM     22  N   UNL     1      47.446  48.412  16.369  1.00  0.00    -0.347 N 
ATOM     23  H   UNL     1      47.855  49.079  15.698  1.00  0.00    +0.345 HD
ATOM     24  H   UNL     1      46.537  48.131  15.981  1.00  0.00    +0.345 HD
ATOM     25  H   UNL     1      48.052  47.571  16.445  1.00  0.00    +0.345 HD
ENDBRANCH   1  22
TORSDOF 6
ENDMDL
MODEL 5
REMARK VINA RESULT:    -6.307      2.812      8.611
REMARK INTER + INTRA:          -9.152
REMARK INTER:                  -8.389
REMARK INTRA:                  -0.764
REMARK UNBOUND:                -0.817
REMARK SMILES NC(=O)C[C@H]([NH3+])C(=O)N1CCN(C[C@H]2CCCO2)CC1
REMARK SMILES IDX 5 1 7 2 12 3 11 4 19 5 10 6 20 7 9 8 8 9 13 10 14 11 16 12
REMARK SMILES IDX 15 13 17 14 18 15 4 16 2 17 3 18 1 19 6 22
REMARK H PARENT 1 20 1 21 6 23 6 24 6 25
ROOT
ATOM      1  C   UNL     1      47.430  49.915  16.852  1.00  0.00    +0.280 C 
ENDROOT
BRANCH   1   2
ATOM      2  C   UNL     1      48.641  49.467  17.685  1.00  0.00    +0.281 C 
ATOM      3  N   UNL     1      50.708  52.346  20.068  1.00  0.00    -0.297 NA
ATOM      4  C   UNL     1      50.605  52.616  18.629  1.00  0.00    +0.106 C 
ATOM      5  C   UNL     1      50.856  50.894  20.340  1.00  0.00    +0.106 C 
ATOM      6  C   UNL     1      49.410  51.853  18.017  1.00  0.00    +0.135 C 
ATOM      7  C   UNL     1      50.537  49.953  19.154  1.00  0.00    +0.135 C 
ATOM      8  N   UNL     1      49.417  50.412  18.326  1.00  0.00    -0.335 N 
ATOM      9  O   UNL     1      48.864  48.250  17.739  1.00  0.00    -0.268 OA
BRANCH   3  10
ATOM     10  C   UNL     1      51.811  53.127  20.685  1.00  0.00    +0.116 C 
BRANCH  10  11
ATOM     11  C   UNL     1      51.540  54.630  20.921  1.00  0.00    +0.132 C 
ATOM     12  C   UNL     1      51.772  56.588  22.185  1.00  0.00    +0.031 C 
ATOM     13  C   UNL     1      51.636  55.094  22.373  1.00  0.00    +0.036 C 
ATOM     14  C   UNL     1      52.665  56.678  20.957  1.00  0.00    +0.160 C 
ATOM     15  O   UNL     1      52.431  55.489  20.175  1.00  0.00    -0.377 OA
ENDBRANCH  10  11
ENDBRANCH   3  10
ENDBRANCH   1   2
BRANCH   1  16
ATOM     16  C   UNL     1      46.132  49.523  17.573  1.00  0.00    +0.175 C 
BRANCH  16  17
ATOM     17  C   UNL     1      45.551  48.261  16.992  1.00  0.00    +0.223 C 
ATOM     18  O   UNL     1      44.866  48.281  15.971  1.00  0.00    -0.275 OA
ATOM     19  N   UNL     1      45.861  47.108  17.630  1.00  0.00    -0.369 N 
ATOM     20  H   UNL     1      46.509  47.039  18.408  1.00  0.00    +0.159 HD
ATOM     21  H   UNL     1      45.523  46.231  17.241  1.00  0.00    +0.159 HD
ENDBRANCH  16  17
ENDBRANCH   1  16
BRANCH   1  22
ATOM     22  N   UNL     1      47.533  49.243  15.497  1.00  0.00    -0.347 N 
ATOM     23  H   UNL     1      47.808  48.255  15.610  1.00  0.00    +0.345 HD
ATOM     24  H   UNL     1      48.267  49.684  14.929  1.00  0.00    +0.345 HD
ATOM     25  H   UNL     1      46.631  49.301  14.984  1.00  0.00    +0.345 HD
ENDBRANCH   1  22
TORSDOF 6
ENDMDL
