MODEL 1
REMARK VINA RESULT:    -7.573      0.000      0.000
REMARK INTER + INTRA:          -9.502
REMARK INTER:                  -9.344
REMARK INTRA:                  -0.158
REMARK UNBOUND:                -0.158
REMARK SMILES NC(=O)NC[C@H]1CCCN(C(=O)C2CC[NH2+]CC2)C1
REMARK SMILES IDX 8 1 7 2 6 3 19 4 10 5 9 6 5 7 4 8 2 9 3 10 1 11 11 15 12 16
REMARK SMILES IDX 13 17 14 18 18 19 15 20 17 21 16 22
REMARK H PARENT 4 12 1 13 1 14 16 23 16 24
ROOT
ATOM      1  C   UNL     1      48.676  52.850  16.958  1.00  0.00    +0.022 C 
ATOM      2  C   UNL     1      49.201  52.785  18.390  1.00  0.00    +0.009 C 
ATOM      3  C   UNL     1      49.833  51.421  18.707  1.00  0.00    +0.028 C 
ATOM      4  C   UNL     1      48.822  50.307  18.395  1.00  0.00    +0.124 C 
ATOM      5  N   UNL     1      48.324  50.385  17.018  1.00  0.00    -0.342 N 
ATOM      6  C   UNL     1      47.747  51.680  16.640  1.00  0.00    +0.119 C 
ENDROOT
BRANCH   3   7
ATOM      7  C   UNL     1      51.149  51.224  17.935  1.00  0.00    +0.123 C 
BRANCH   7   8
ATOM      8  N   UNL     1      51.894  50.071  18.407  1.00  0.00    -0.338 N 
ATOM      9  C   UNL     1      52.609  50.101  19.567  1.00  0.00    +0.312 C 
ATOM     10  O   UNL     1      52.826  51.090  20.255  1.00  0.00    -0.249 OA
ATOM     11  N   UNL     1      53.088  48.877  19.900  1.00  0.00    -0.352 N 
ATOM     12  H   UNL     1      51.524  49.162  18.162  1.00  0.00    +0.165 HD
ATOM     13  H   UNL     1      53.360  48.262  19.145  1.00  0.00    +0.161 HD
ATOM     14  H   UNL     1      53.709  48.866  20.698  1.00  0.00    +0.161 HD
ENDBRANCH   7   8
ENDBRANCH   3   7
BRANCH   5  15
ATOM     15  C   UNL     1      47.965  49.190  16.407  1.00  0.00    +0.226 C 
ATOM     16  O   UNL     1      48.794  48.369  16.012  1.00  0.00    -0.275 OA
BRANCH  15  17
ATOM     17  C   UNL     1      46.483  48.975  16.080  1.00  0.00    +0.090 C 
ATOM     18  C   UNL     1      46.298  47.569  15.490  1.00  0.00    +0.075 C 
ATOM     19  C   UNL     1      45.595  49.151  17.328  1.00  0.00    +0.075 C 
ATOM     20  C   UNL     1      46.528  46.492  16.542  1.00  0.00    +0.261 C 
ATOM     21  C   UNL     1      45.732  48.023  18.345  1.00  0.00    +0.261 C 
ATOM     22  N   UNL     1      45.566  46.707  17.664  1.00  0.00    -0.346 N 
ATOM     23  H   UNL     1      45.717  45.960  18.356  1.00  0.00    +0.346 HD
ATOM     24  H   UNL     1      44.601  46.592  17.330  1.00  0.00    +0.346 HD
ENDBRANCH  15  17
ENDBRANCH   5  15
TORSDOF 4
ENDMDL
MODEL 2
REMARK VINA RESULT:    -7.240      4.053      6.094
REMARK INTER + INTRA:          -9.091
REMARK INTER:                  -9.211
REMARK INTRA:                   0.120
REMARK UNBOUND:                -0.158
REMARK SMILES NC(=O)NC[C@H]1CCCN(C(=O)C2CC[NH2+]CC2)C1
REMARK SMILES IDX 8 1 7 2 6 3 19 4 10 5 9 6 5 7 4 8 2 9 3 10 1 11 11 15 12 16
REMARK SMILES IDX 13 17 14 18 18 19 15 20 17 21 16 22
REMARK H PARENT 4 12 1 13 1 14 16 23 16 24
ROOT
ATOM      1  C   UNL     1      48.863  54.812  18.362  1.00  0.00    +0.022 C 
ATOM      2  C   UNL     1      48.660  55.687  19.596  1.00  0.00    +0.009 C 
ATOM      3  C   UNL     1      49.867  55.630  20.544  1.00  0.00    +0.028 C 
ATOM      4  C   UNL     1      50.169  54.166  20.897  1.00  0.00    +0.124 C 
ATOM      5  N   UNL     1      50.358  53.339  19.701  1.00  0.00    -0.342 N 
ATOM      6  C   UNL     1      49.255  53.385  18.735  1.00  0.00    +0.119 C 
ENDROOT
BRANCH   3   7
ATOM      7  C   UNL     1      51.092  56.328  19.927  1.00  0.00    +0.123 C 
BRANCH   7   8
ATOM      8  N   UNL     1      51.486  57.506  20.677  1.00  0.00    -0.338 N 
ATOM      9  C   UNL     1      52.366  57.437  21.716  1.00  0.00    +0.312 C 
ATOM     10  O   UNL     1      52.805  56.413  22.222  1.00  0.00    -0.249 OA
ATOM     11  N   UNL     1      52.720  58.667  22.164  1.00  0.00    -0.352 N 
ATOM     12  H   UNL     1      51.499  58.382  20.170  1.00  0.00    +0.165 HD
ATOM     13  H   UNL     1      52.018  59.393  22.134  1.00  0.00    +0.161 HD
ATOM     14  H   UNL     1      53.291  58.667  22.999  1.00  0.00    +0.161 HD
ENDBRANCH   7   8
ENDBRANCH   3   7
BRANCH   5  15
ATOM     15  C   UNL     1      51.222  52.256  19.812  1.00  0.00    +0.226 C 
ATOM     16  O   UNL     1      52.176  52.243  20.591  1.00  0.00    -0.275 OA
BRANCH  15  17
ATOM     17  C   UNL     1      51.059  51.109  18.808  1.00  0.00    +0.090 C 
ATOM     18  C   UNL     1      52.430  50.464  18.556  1.00  0.00    +0.075 C 
ATOM     19  C   UNL     1      50.056  50.052  19.312  1.00  0.00    +0.075 C 
ATOM     20  C   UNL     1      52.923  49.713  19.786  1.00  0.00    +0.261 C 
ATOM     21  C   UNL     1      50.577  49.215  20.476  1.00  0.00    +0.261 C 
ATOM     22  N   UNL     1      51.921  48.664  20.139  1.00  0.00    -0.346 N 
ATOM     23  H   UNL     1      52.277  48.150  20.957  1.00  0.00    +0.346 HD
ATOM     24  H   UNL     1      51.849  47.973  19.381  1.00  0.00    +0.346 HD
ENDBRANCH  15  17
ENDBRANCH   5  15
TORSDOF 4
ENDMDL
MODEL 3
REMARK VINA RESULT:    -7.180      2.811      5.926
REMARK INTER + INTRA:          -9.017
REMARK INTER:                  -8.949
REMARK INTRA:                  -0.068
REMARK UNBOUND:                -0.158
REMARK SMILES NC(=O)NC[C@H]1CCCN(C(=O)C2CC[NH2+]CC2)C1
REMARK SMILES IDX 8 1 7 2 6 3 19 4 10 5 9 6 5 7 4 8 2 9 3 10 1 11 11 15 12 16
REMARK SMILES IDX 13 17 14 18 18 19 15 20 17 21 16 22
REMARK H PARENT 4 12 1 13 1 14 16 23 16 24
ROOT
ATOM      1  C   UNL     1      47.562  51.741  17.125  1.00  0.00    +0.022 C 
ATOM      2  C   UNL     1      48.175  50.497  16.488  1.00  0.00    +0.009 C 
ATOM      3  C   UNL     1      49.407  50.004  17.262  1.00  0.00    +0.028 C 
ATOM      4  C   UNL     1      50.413  51.155  17.403  1.00  0.00    +0.124 C 
ATOM      5  N   UNL     1      49.808  52.344  18.013  1.00  0.00    -0.342 N 
ATOM      6  C   UNL     1      48.601  52.838  17.343  1.00  0.00    +0.119 C 
ENDROOT
BRANCH   3   7
ATOM      7  C   UNL     1      49.009  49.428  18.632  1.00  0.00    +0.123 C 
BRANCH   7   8
ATOM      8  N   UNL     1      50.027  48.547  19.173  1.00  0.00    -0.338 N 
ATOM      9  C   UNL     1      50.777  48.893  20.258  1.00  0.00    +0.312 C 
ATOM     10  O   UNL     1      50.794  49.989  20.802  1.00  0.00    -0.249 OA
ATOM     11  N   UNL     1      51.546  47.864  20.693  1.00  0.00    -0.352 N 
ATOM     12  H   UNL     1      49.867  47.553  19.071  1.00  0.00    +0.165 HD
ATOM     13  H   UNL     1      51.913  47.231  19.997  1.00  0.00    +0.161 HD
ATOM     14  H   UNL     1      52.195  48.101  21.431  1.00  0.00    +0.161 HD
ENDBRANCH   7   8
ENDBRANCH   3   7
BRANCH   5  15
ATOM     15  C   UNL     1      50.642  53.160  18.769  1.00  0.00    +0.226 C 
ATOM     16  O   UNL     1      51.786  53.451  18.415  1.00  0.00    -0.275 OA
BRANCH  15  17
ATOM     17  C   UNL     1      50.161  53.573  20.163  1.00  0.00    +0.090 C 
ATOM     18  C   UNL     1      51.379  53.918  21.033  1.00  0.00    +0.075 C 
ATOM     19  C   UNL     1      49.195  54.772  20.098  1.00  0.00    +0.075 C 
ATOM     20  C   UNL     1      52.051  55.201  20.561  1.00  0.00    +0.261 C 
ATOM     21  C   UNL     1      49.871  56.089  19.732  1.00  0.00    +0.261 C 
ATOM     22  N   UNL     1      51.054  56.311  20.613  1.00  0.00    -0.346 N 
ATOM     23  H   UNL     1      51.527  57.174  20.312  1.00  0.00    +0.346 HD
ATOM     24  H   UNL     1      50.756  56.474  21.583  1.00  0.00    +0.346 HD
ENDBRANCH  15  17
ENDBRANCH   5  15
TORSDOF 4
ENDMDL
MODEL 4
REMARK VINA RESULT:    -7.156      3.735      6.977
REMARK INTER + INTRA:          -8.987
REMARK INTER:                  -9.041
REMARK INTRA:                   0.054
REMARK UNBOUND:                -0.158
REMARK SMILES NC(=O)NC[C@H]1CCCN(C(=O)C2CC[NH2+]CC2)C1
REMARK SMILES IDX 8 1 7 2 6 3 19 4 10 5 9 6 5 7 4 8 2 9 3 10 1 11 11 15 12 16
REMARK SMILES IDX 13 17 14 18 18 19 15 20 17 21 16 22
REMARK H PARENT 4 12 1 13 1 14 16 23 16 24
ROOT
ATOM      1  C   UNL     1      48.096  52.749  17.800  1.00  0.00    +0.022 C 
ATOM      2  C   UNL     1      49.202  51.984  17.078  1.00  0.00    +0.009 C 
ATOM      3  C   UNL     1      50.447  51.810  17.961  1.00  0.00    +0.028 C 
ATOM      4  C   UNL     1      50.909  53.184  18.467  1.00  0.00    +0.124 C 
ATOM      5  N   UNL     1      49.834  53.907  19.154  1.00  0.00    -0.342 N 
ATOM      6  C   UNL     1      48.601  54.069  18.377  1.00  0.00    +0.119 C 
ENDROOT
BRANCH   3   7
ATOM      7  C   UNL     1      50.173  50.840  19.124  1.00  0.00    +0.123 C 
BRANCH   7   8
ATOM      8  N   UNL     1      51.147  49.765  19.182  1.00  0.00    -0.338 N 
ATOM      9  C   UNL     1      52.285  49.864  19.925  1.00  0.00    +0.312 C 
ATOM     10  O   UNL     1      52.689  50.869  20.494  1.00  0.00    -0.249 OA
ATOM     11  N   UNL     1      52.966  48.692  19.970  1.00  0.00    -0.352 N 
ATOM     12  H   UNL     1      50.788  48.824  19.083  1.00  0.00    +0.165 HD
ATOM     13  H   UNL     1      52.940  48.107  19.147  1.00  0.00    +0.161 HD
ATOM     14  H   UNL     1      53.868  48.742  20.424  1.00  0.00    +0.161 HD
ENDBRANCH   7   8
ENDBRANCH   3   7
BRANCH   5  15
ATOM     15  C   UNL     1      50.208  54.779  20.170  1.00  0.00    +0.226 C 
ATOM     16  O   UNL     1      49.481  55.692  20.565  1.00  0.00    -0.275 OA
BRANCH  15  17
ATOM     17  C   UNL     1      51.644  54.685  20.696  1.00  0.00    +0.090 C 
ATOM     18  C   UNL     1      52.442  55.900  20.197  1.00  0.00    +0.075 C 
ATOM     19  C   UNL     1      51.682  54.617  22.235  1.00  0.00    +0.075 C 
ATOM     20  C   UNL     1      51.968  57.185  20.863  1.00  0.00    +0.261 C 
ATOM     21  C   UNL     1      51.314  55.930  22.919  1.00  0.00    +0.261 C 
ATOM     22  N   UNL     1      52.121  57.043  22.341  1.00  0.00    -0.346 N 
ATOM     23  H   UNL     1      51.818  57.925  22.776  1.00  0.00    +0.346 HD
ATOM     24  H   UNL     1      53.114  56.934  22.585  1.00  0.00    +0.346 HD
ENDBRANCH  15  17
ENDBRANCH   5  15
TORSDOF 4
ENDMDL
MODEL 5
REMARK VINA RESULT:    -6.897      2.442      5.971
REMARK INTER + INTRA:          -8.668
REMARK INTER:                  -8.549
REMARK INTRA:                  -0.119
REMARK UNBOUND:                -0.158
REMARK SMILES NC(=O)NC[C@H]1CCCN(C(=O)C2CC[NH2+]CC2)C1
REMARK SMILES IDX 8 1 7 2 6 3 19 4 10 5 9 6 5 7 4 8 2 9 3 10 1 11 11 15 12 16
REMARK SMILES IDX 13 17 14 18 18 19 15 20 17 21 16 22
REMARK H PARENT 4 12 1 13 1 14 16 23 16 24
ROOT
ATOM      1  C   UNL     1      46.017  48.481  13.658  1.00  0.00    +0.022 C 
ATOM      2  C   UNL     1      45.663  47.110  14.226  1.00  0.00    +0.009 C 
ATOM      3  C   UNL     1      45.910  47.037  15.741  1.00  0.00    +0.028 C 
ATOM      4  C   UNL     1      47.358  47.448  16.042  1.00  0.00    +0.124 C 
ATOM      5  N   UNL     1      47.683  48.766  15.486  1.00  0.00    -0.342 N 
ATOM      6  C   UNL     1      47.429  48.912  14.048  1.00  0.00    +0.119 C 
ENDROOT
BRANCH   3   7
ATOM      7  C   UNL     1      44.902  47.908  16.510  1.00  0.00    +0.123 C 
BRANCH   7   8
ATOM      8  N   UNL     1      44.335  47.212  17.652  1.00  0.00    -0.338 N 
ATOM      9  C   UNL     1      44.918  47.255  18.883  1.00  0.00    +0.312 C 
ATOM     10  O   UNL     1      46.012  47.737  19.146  1.00  0.00    -0.249 OA
ATOM     11  N   UNL     1      44.140  46.679  19.833  1.00  0.00    -0.352 N 
ATOM     12  H   UNL     1      43.329  47.108  17.664  1.00  0.00    +0.165 HD
ATOM     13  H   UNL     1      43.581  45.884  19.558  1.00  0.00    +0.161 HD
ATOM     14  H   UNL     1      44.573  46.595  20.743  1.00  0.00    +0.161 HD
ENDBRANCH   7   8
ENDBRANCH   3   7
BRANCH   5  15
ATOM     15  C   UNL     1      48.628  49.523  16.168  1.00  0.00    +0.226 C 
ATOM     16  O   UNL     1      49.814  49.563  15.837  1.00  0.00    -0.275 OA
BRANCH  15  17
ATOM     17  C   UNL     1      48.190  50.201  17.470  1.00  0.00    +0.090 C 
ATOM     18  C   UNL     1      49.426  50.439  18.352  1.00  0.00    +0.075 C 
ATOM     19  C   UNL     1      47.463  51.534  17.200  1.00  0.00    +0.075 C 
ATOM     20  C   UNL     1      50.336  51.505  17.754  1.00  0.00    +0.261 C 
ATOM     21  C   UNL     1      48.380  52.647  16.704  1.00  0.00    +0.261 C 
ATOM     22  N   UNL     1      49.558  52.772  17.610  1.00  0.00    -0.346 N 
ATOM     23  H   UNL     1      50.190  53.488  17.227  1.00  0.00    +0.346 HD
ATOM     24  H   UNL     1      49.268  53.116  18.534  1.00  0.00    +0.346 HD
ENDBRANCH  15  17
ENDBRANCH   5  15
TORSDOF 4
ENDMDL
