MODEL 1
REMARK VINA RESULT:    -6.768      0.000      0.000
REMARK INTER + INTRA:          -9.312
REMARK INTER:                  -8.944
REMARK INTRA:                  -0.368
REMARK UNBOUND:                -0.368
REMARK SMILES CN(C)C(=O)CN1CCN(C(=O)[C@H]([NH3+])CC(N)=O)CC1
REMARK SMILES IDX 7 1 8 2 9 3 10 4 19 5 20 6 11 7 12 8 6 9 4 10 2 11 5 12 1 13
REMARK SMILES IDX 3 14 13 15 15 16 16 17 18 18 17 19 14 22
REMARK H PARENT 17 20 17 21 14 23 14 24 14 25
ROOT
ATOM      1  N   UNL     1      51.706  50.554  19.085  1.00  0.00    -0.291 NA
ATOM      2  C   UNL     1      50.664  50.092  20.005  1.00  0.00    +0.106 C 
ATOM      3  C   UNL     1      49.638  49.208  19.269  1.00  0.00    +0.135 C 
ATOM      4  N   UNL     1      49.061  49.848  18.078  1.00  0.00    -0.335 N 
ATOM      5  C   UNL     1      49.644  51.149  17.718  1.00  0.00    +0.135 C 
ATOM      6  C   UNL     1      51.179  51.156  17.846  1.00  0.00    +0.106 C 
ATOM      7  C   UNL     1      48.106  49.285  17.263  1.00  0.00    +0.281 C 
ATOM      8  O   UNL     1      47.709  49.803  16.214  1.00  0.00    -0.268 OA
ENDROOT
BRANCH   1   9
ATOM      9  C   UNL     1      52.746  51.384  19.733  1.00  0.00    +0.185 C 
BRANCH   9  10
ATOM     10  C   UNL     1      52.659  52.899  19.434  1.00  0.00    +0.236 C 
ATOM     11  N   UNL     1      51.982  53.680  20.376  1.00  0.00    -0.348 N 
ATOM     12  O   UNL     1      53.146  53.396  18.413  1.00  0.00    -0.273 OA
ATOM     13  C   UNL     1      51.677  53.222  21.726  1.00  0.00    +0.146 C 
ATOM     14  C   UNL     1      51.982  55.121  20.180  1.00  0.00    +0.146 C 
ENDBRANCH   9  10
ENDBRANCH   1   9
BRANCH   7  15
ATOM     15  C   UNL     1      47.479  47.941  17.653  1.00  0.00    +0.280 C 
BRANCH  15  16
ATOM     16  C   UNL     1      46.385  48.173  18.700  1.00  0.00    +0.175 C 
BRANCH  16  17
ATOM     17  C   UNL     1      45.043  47.794  18.141  1.00  0.00    +0.223 C 
ATOM     18  O   UNL     1      44.490  48.479  17.283  1.00  0.00    -0.275 OA
ATOM     19  N   UNL     1      44.457  46.698  18.686  1.00  0.00    -0.369 N 
ATOM     20  H   UNL     1      44.855  46.151  19.440  1.00  0.00    +0.159 HD
ATOM     21  H   UNL     1      43.536  46.423  18.358  1.00  0.00    +0.159 HD
ENDBRANCH  16  17
ENDBRANCH  15  16
BRANCH  15  22
ATOM     22  N   UNL     1      46.884  47.323  16.403  1.00  0.00    -0.347 N 
ATOM     23  H   UNL     1      47.072  46.302  16.379  1.00  0.00    +0.345 HD
ATOM     24  H   UNL     1      45.869  47.496  16.379  1.00  0.00    +0.345 HD
ATOM     25  H   UNL     1      47.270  47.752  15.555  1.00  0.00    +0.345 HD
ENDBRANCH  15  22
ENDBRANCH   7  15
TORSDOF 6
ENDMDL
MODEL 2
REMARK VINA RESULT:    -6.508      3.088      7.729
REMARK INTER + INTRA:          -8.968
REMARK INTER:                  -8.492
REMARK INTRA:                  -0.475
REMARK UNBOUND:                -0.368
REMARK SMILES CN(C)C(=O)CN1CCN(C(=O)[C@H]([NH3+])CC(N)=O)CC1
REMARK SMILES IDX 7 1 8 2 9 3 10 4 19 5 20 6 11 7 12 8 6 9 4 10 2 11 5 12 1 13
REMARK SMILES IDX 3 14 13 15 15 16 16 17 18 18 17 19 14 22
REMARK H PARENT 17 20 17 21 14 23 14 24 14 25
ROOT
ATOM      1  N   UNL     1      51.923  52.241  19.261  1.00  0.00    -0.291 NA
ATOM      2  C   UNL     1      50.768  53.122  19.062  1.00  0.00    +0.106 C 
ATOM      3  C   UNL     1      50.993  54.480  19.753  1.00  0.00    +0.135 C 
ATOM      4  N   UNL     1      51.345  54.363  21.176  1.00  0.00    -0.335 N 
ATOM      5  C   UNL     1      51.549  52.991  21.663  1.00  0.00    +0.135 C 
ATOM      6  C   UNL     1      52.351  52.132  20.667  1.00  0.00    +0.106 C 
ATOM      7  C   UNL     1      51.569  55.422  22.024  1.00  0.00    +0.281 C 
ATOM      8  O   UNL     1      51.957  55.297  23.190  1.00  0.00    -0.268 OA
ENDROOT
BRANCH   1   9
ATOM      9  C   UNL     1      51.789  50.926  18.594  1.00  0.00    +0.185 C 
BRANCH   9  10
ATOM     10  C   UNL     1      50.553  50.099  19.015  1.00  0.00    +0.236 C 
ATOM     11  N   UNL     1      49.501  50.043  18.095  1.00  0.00    -0.348 N 
ATOM     12  O   UNL     1      50.485  49.527  20.108  1.00  0.00    -0.273 OA
ATOM     13  C   UNL     1      49.643  50.411  16.691  1.00  0.00    +0.146 C 
ATOM     14  C   UNL     1      48.374  49.181  18.413  1.00  0.00    +0.146 C 
ENDBRANCH   9  10
ENDBRANCH   1   9
BRANCH   7  15
ATOM     15  C   UNL     1      51.331  56.853  21.525  1.00  0.00    +0.280 C 
BRANCH  15  16
ATOM     16  C   UNL     1      49.942  57.324  21.971  1.00  0.00    +0.175 C 
BRANCH  16  17
ATOM     17  C   UNL     1      49.067  57.565  20.773  1.00  0.00    +0.223 C 
ATOM     18  O   UNL     1      49.508  57.479  19.629  1.00  0.00    -0.275 OA
ATOM     19  N   UNL     1      47.791  57.945  21.034  1.00  0.00    -0.369 N 
ATOM     20  H   UNL     1      47.414  58.090  21.962  1.00  0.00    +0.159 HD
ATOM     21  H   UNL     1      47.172  58.147  20.253  1.00  0.00    +0.159 HD
ENDBRANCH  16  17
ENDBRANCH  15  16
BRANCH  15  22
ATOM     22  N   UNL     1      52.402  57.742  22.124  1.00  0.00    -0.347 N 
ATOM     23  H   UNL     1      53.138  57.946  21.421  1.00  0.00    +0.345 HD
ATOM     24  H   UNL     1      51.979  58.619  22.458  1.00  0.00    +0.345 HD
ATOM     25  H   UNL     1      52.837  57.302  22.942  1.00  0.00    +0.345 HD
ENDBRANCH  15  22
ENDBRANCH   7  15
TORSDOF 6
ENDMDL
MODEL 3
REMARK VINA RESULT:    -6.439      3.061      8.599
REMARK INTER + INTRA:          -8.877
REMARK INTER:                  -8.346
REMARK INTRA:                  -0.531
REMARK UNBOUND:                -0.368
REMARK SMILES CN(C)C(=O)CN1CCN(C(=O)[C@H]([NH3+])CC(N)=O)CC1
REMARK SMILES IDX 7 1 8 2 9 3 10 4 19 5 20 6 11 7 12 8 6 9 4 10 2 11 5 12 1 13
REMARK SMILES IDX 3 14 13 15 15 16 16 17 18 18 17 19 14 22
REMARK H PARENT 17 20 17 21 14 23 14 24 14 25
ROOT
ATOM      1  N   UNL     1      50.592  52.170  18.550  1.00  0.00    -0.291 NA
ATOM      2  C   UNL     1      51.917  52.796  18.544  1.00  0.00    +0.106 C 
ATOM      3  C   UNL     1      51.997  53.915  19.600  1.00  0.00    +0.135 C 
ATOM      4  N   UNL     1      50.927  54.915  19.476  1.00  0.00    -0.335 N 
ATOM      5  C   UNL     1      49.901  54.617  18.467  1.00  0.00    +0.135 C 
ATOM      6  C   UNL     1      49.479  53.135  18.482  1.00  0.00    +0.106 C 
ATOM      7  C   UNL     1      50.787  56.026  20.276  1.00  0.00    +0.281 C 
ATOM      8  O   UNL     1      49.826  56.798  20.214  1.00  0.00    -0.268 OA
ENDROOT
BRANCH   1   9
ATOM      9  C   UNL     1      50.454  51.061  17.579  1.00  0.00    +0.185 C 
BRANCH   9  10
ATOM     10  C   UNL     1      49.670  49.832  18.093  1.00  0.00    +0.236 C 
ATOM     11  N   UNL     1      48.945  49.113  17.137  1.00  0.00    -0.348 N 
ATOM     12  O   UNL     1      49.668  49.504  19.284  1.00  0.00    -0.273 OA
ATOM     13  C   UNL     1      49.161  49.247  15.700  1.00  0.00    +0.146 C 
ATOM     14  C   UNL     1      48.291  47.888  17.568  1.00  0.00    +0.146 C 
ENDBRANCH   9  10
ENDBRANCH   1   9
BRANCH   7  15
ATOM     15  C   UNL     1      51.871  56.351  21.312  1.00  0.00    +0.280 C 
BRANCH  15  16
ATOM     16  C   UNL     1      52.821  57.409  20.740  1.00  0.00    +0.175 C 
BRANCH  16  17
ATOM     17  C   UNL     1      53.379  58.258  21.847  1.00  0.00    +0.223 C 
ATOM     18  O   UNL     1      52.973  59.400  22.046  1.00  0.00    -0.275 OA
ATOM     19  N   UNL     1      54.395  57.712  22.562  1.00  0.00    -0.369 N 
ATOM     20  H   UNL     1      54.798  56.801  22.382  1.00  0.00    +0.159 HD
ATOM     21  H   UNL     1      54.822  58.262  23.302  1.00  0.00    +0.159 HD
ENDBRANCH  16  17
ENDBRANCH  15  16
BRANCH  15  22
ATOM     22  N   UNL     1      51.186  56.881  22.555  1.00  0.00    -0.347 N 
ATOM     23  H   UNL     1      51.516  57.842  22.769  1.00  0.00    +0.345 HD
ATOM     24  H   UNL     1      50.165  56.880  22.417  1.00  0.00    +0.345 HD
ATOM     25  H   UNL     1      51.368  56.279  23.366  1.00  0.00    +0.345 HD
ENDBRANCH  15  22
ENDBRANCH   7  15
TORSDOF 6
ENDMDL
MODEL 4
REMARK VINA RESULT:    -6.208      2.377      7.793
REMARK INTER + INTRA:          -8.572
REMARK INTER:                  -7.796
REMARK INTRA:                  -0.776
REMARK UNBOUND:                -0.368
REMARK SMILES CN(C)C(=O)CN1CCN(C(=O)[C@H]([NH3+])CC(N)=O)CC1
REMARK SMILES IDX 7 1 8 2 9 3 10 4 19 5 20 6 11 7 12 8 6 9 4 10 2 11 5 12 1 13
REMARK SMILES IDX 3 14 13 15 15 16 16 17 18 18 17 19 14 22
REMARK H PARENT 17 20 17 21 14 23 14 24 14 25
ROOT
ATOM      1  N   UNL     1      49.979  50.820  17.770  1.00  0.00    -0.291 NA
ATOM      2  C   UNL     1      48.998  51.891  17.967  1.00  0.00    +0.106 C 
ATOM      3  C   UNL     1      49.685  53.176  18.468  1.00  0.00    +0.135 C 
ATOM      4  N   UNL     1      50.510  52.970  19.667  1.00  0.00    -0.335 N 
ATOM      5  C   UNL     1      50.645  51.574  20.107  1.00  0.00    +0.135 C 
ATOM      6  C   UNL     1      50.869  50.609  18.926  1.00  0.00    +0.106 C 
ATOM      7  C   UNL     1      51.205  53.957  20.327  1.00  0.00    +0.281 C 
ATOM      8  O   UNL     1      51.967  53.743  21.275  1.00  0.00    -0.268 OA
ENDROOT
BRANCH   1   9
ATOM      9  C   UNL     1      49.391  49.562  17.258  1.00  0.00    +0.185 C 
BRANCH   9  10
ATOM     10  C   UNL     1      48.034  49.167  17.886  1.00  0.00    +0.236 C 
ATOM     11  N   UNL     1      46.932  49.153  17.025  1.00  0.00    -0.348 N 
ATOM     12  O   UNL     1      47.920  48.892  19.085  1.00  0.00    -0.273 OA
ATOM     13  C   UNL     1      47.050  49.148  15.571  1.00  0.00    +0.146 C 
ATOM     14  C   UNL     1      45.666  48.677  17.560  1.00  0.00    +0.146 C 
ENDBRANCH   9  10
ENDBRANCH   1   9
BRANCH   7  15
ATOM     15  C   UNL     1      51.044  55.418  19.885  1.00  0.00    +0.280 C 
BRANCH  15  16
ATOM     16  C   UNL     1      50.244  56.185  20.943  1.00  0.00    +0.175 C 
BRANCH  16  17
ATOM     17  C   UNL     1      51.172  56.962  21.833  1.00  0.00    +0.223 C 
ATOM     18  O   UNL     1      51.601  58.066  21.504  1.00  0.00    -0.275 OA
ATOM     19  N   UNL     1      51.556  56.345  22.979  1.00  0.00    -0.369 N 
ATOM     20  H   UNL     1      51.275  55.411  23.248  1.00  0.00    +0.159 HD
ATOM     21  H   UNL     1      52.206  56.823  23.597  1.00  0.00    +0.159 HD
ENDBRANCH  16  17
ENDBRANCH  15  16
BRANCH  15  22
ATOM     22  N   UNL     1      52.429  56.017  19.740  1.00  0.00    -0.347 N 
ATOM     23  H   UNL     1      52.397  57.044  19.895  1.00  0.00    +0.345 HD
ATOM     24  H   UNL     1      53.070  55.578  20.415  1.00  0.00    +0.345 HD
ATOM     25  H   UNL     1      52.819  55.834  18.809  1.00  0.00    +0.345 HD
ENDBRANCH  15  22
ENDBRANCH   7  15
TORSDOF 6
ENDMDL
MODEL 5
REMARK VINA RESULT:    -6.200      2.391      3.502
REMARK INTER + INTRA:          -8.562
REMARK INTER:                  -7.942
REMARK INTRA:                  -0.620
REMARK UNBOUND:                -0.368
REMARK SMILES CN(C)C(=O)CN1CCN(C(=O)[C@H]([NH3+])CC(N)=O)CC1
REMARK SMILES IDX 7 1 8 2 9 3 10 4 19 5 20 6 11 7 12 8 6 9 4 10 2 11 5 12 1 13
REMARK SMILES IDX 3 14 13 15 15 16 16 17 18 18 17 19 14 22
REMARK H PARENT 17 20 17 21 14 23 14 24 14 25
ROOT
ATOM      1  N   UNL     1      51.235  53.997  20.249  1.00  0.00    -0.291 NA
ATOM      2  C   UNL     1      50.700  52.693  20.653  1.00  0.00    +0.106 C 
ATOM      3  C   UNL     1      50.489  51.786  19.425  1.00  0.00    +0.135 C 
ATOM      4  N   UNL     1      49.669  52.405  18.373  1.00  0.00    -0.335 N 
ATOM      5  C   UNL     1      49.302  53.809  18.605  1.00  0.00    +0.135 C 
ATOM      6  C   UNL     1      50.479  54.637  19.157  1.00  0.00    +0.106 C 
ATOM      7  C   UNL     1      49.312  51.798  17.191  1.00  0.00    +0.281 C 
ATOM      8  O   UNL     1      48.704  52.372  16.282  1.00  0.00    -0.268 OA
ENDROOT
BRANCH   1   9
ATOM      9  C   UNL     1      51.493  54.911  21.385  1.00  0.00    +0.185 C 
BRANCH   9  10
ATOM     10  C   UNL     1      52.287  56.189  21.032  1.00  0.00    +0.236 C 
ATOM     11  N   UNL     1      51.616  57.405  21.202  1.00  0.00    -0.348 N 
ATOM     12  O   UNL     1      53.447  56.147  20.607  1.00  0.00    -0.273 OA
ATOM     13  C   UNL     1      50.395  57.542  21.988  1.00  0.00    +0.146 C 
ATOM     14  C   UNL     1      52.373  58.628  20.988  1.00  0.00    +0.146 C 
ENDBRANCH   9  10
ENDBRANCH   1   9
BRANCH   7  15
ATOM     15  C   UNL     1      49.672  50.325  16.960  1.00  0.00    +0.280 C 
BRANCH  15  16
ATOM     16  C   UNL     1      48.420  49.557  16.521  1.00  0.00    +0.175 C 
BRANCH  16  17
ATOM     17  C   UNL     1      47.460  49.431  17.670  1.00  0.00    +0.223 C 
ATOM     18  O   UNL     1      47.825  49.014  18.766  1.00  0.00    -0.275 OA
ATOM     19  N   UNL     1      46.166  49.739  17.402  1.00  0.00    -0.369 N 
ATOM     20  H   UNL     1      45.820  50.021  16.493  1.00  0.00    +0.159 HD
ATOM     21  H   UNL     1      45.477  49.640  18.142  1.00  0.00    +0.159 HD
ENDBRANCH  16  17
ENDBRANCH  15  16
BRANCH  15  22
ATOM     22  N   UNL     1      50.729  50.267  15.874  1.00  0.00    -0.347 N 
ATOM     23  H   UNL     1      51.660  50.514  16.262  1.00  0.00    +0.345 HD
ATOM     24  H   UNL     1      50.755  49.323  15.465  1.00  0.00    +0.345 HD
ATOM     25  H   UNL     1      50.508  50.910  15.105  1.00  0.00    +0.345 HD
ENDBRANCH  15  22
ENDBRANCH   7  15
TORSDOF 6
ENDMDL
