MODEL 1
REMARK VINA RESULT:    -7.569      0.000      0.000
REMARK INTER + INTRA:         -10.489
REMARK INTER:                  -9.781
REMARK INTRA:                  -0.708
REMARK UNBOUND:                -0.708
REMARK SMILES NC(=O)[C@@H](NCC(F)(F)F)c1ccc2c(c1)OCO2
REMARK SMILES IDX 5 1 4 3 11 4 12 5 13 6 14 7 16 8 15 9 19 10 17 11 18 12 2 13
REMARK SMILES IDX 3 14 1 15 6 18 7 19 8 20 9 21 10 22
REMARK H PARENT 5 2 1 16 1 17
ROOT
ATOM      1  N   UNL     1      50.651  57.702  20.882  1.00  0.00    -0.294 NA
ATOM      2  H   UNL     1      50.963  58.681  20.909  1.00  0.00    +0.124 HD
ENDROOT
BRANCH   1   3
ATOM      3  C   UNL     1      51.543  56.925  21.773  1.00  0.00    +0.174 C 
BRANCH   3   4
ATOM      4  C   UNL     1      51.711  55.492  21.287  1.00  0.00    -0.018 A 
ATOM      5  C   UNL     1      51.586  54.417  22.201  1.00  0.00    +0.010 A 
ATOM      6  C   UNL     1      51.755  53.093  21.785  1.00  0.00    +0.051 A 
ATOM      7  C   UNL     1      52.048  52.869  20.458  1.00  0.00    +0.165 A 
ATOM      8  C   UNL     1      52.015  55.217  19.939  1.00  0.00    +0.056 A 
ATOM      9  C   UNL     1      52.175  53.901  19.560  1.00  0.00    +0.166 A 
ATOM     10  O   UNL     1      52.246  51.654  19.883  1.00  0.00    -0.454 OA
ATOM     11  O   UNL     1      52.471  53.466  18.307  1.00  0.00    -0.454 OA
ATOM     12  C   UNL     1      52.495  52.038  18.514  1.00  0.00    +0.468 C 
ENDBRANCH   3   4
BRANCH   3  13
ATOM     13  C   UNL     1      52.887  57.702  21.903  1.00  0.00    +0.239 C 
ATOM     14  O   UNL     1      53.977  57.175  21.667  1.00  0.00    -0.273 OA
ATOM     15  N   UNL     1      52.842  59.032  22.212  1.00  0.00    -0.368 N 
ATOM     16  H   UNL     1      53.739  59.470  22.382  1.00  0.00    +0.159 HD
ATOM     17  H   UNL     1      52.049  59.421  22.706  1.00  0.00    +0.159 HD
ENDBRANCH   3  13
ENDBRANCH   1   3
BRANCH   1  18
ATOM     18  C   UNL     1      49.232  57.627  21.304  1.00  0.00    +0.198 C 
BRANCH  18  19
ATOM     19  C   UNL     1      48.273  56.958  20.301  1.00  0.00    +0.401 C 
ATOM     20  F   UNL     1      46.984  57.218  20.617  1.00  0.00    -0.170 F 
ATOM     21  F   UNL     1      48.432  55.614  20.322  1.00  0.00    -0.170 F 
ATOM     22  F   UNL     1      48.489  57.375  19.036  1.00  0.00    -0.170 F 
ENDBRANCH  18  19
ENDBRANCH   1  18
TORSDOF 5
ENDMDL
MODEL 2
REMARK VINA RESULT:    -7.180      5.802      7.942
REMARK INTER + INTRA:          -9.987
REMARK INTER:                  -9.225
REMARK INTRA:                  -0.762
REMARK UNBOUND:                -0.708
REMARK SMILES NC(=O)[C@@H](NCC(F)(F)F)c1ccc2c(c1)OCO2
REMARK SMILES IDX 5 1 4 3 11 4 12 5 13 6 14 7 16 8 15 9 19 10 17 11 18 12 2 13
REMARK SMILES IDX 3 14 1 15 6 18 7 19 8 20 9 21 10 22
REMARK H PARENT 5 2 1 16 1 17
ROOT
ATOM      1  N   UNL     1      49.274  48.722  16.785  1.00  0.00    -0.294 NA
ATOM      2  H   UNL     1      49.911  48.054  16.334  1.00  0.00    +0.124 HD
ENDROOT
BRANCH   1   3
ATOM      3  C   UNL     1      49.122  49.879  15.873  1.00  0.00    +0.174 C 
BRANCH   3   4
ATOM      4  C   UNL     1      49.003  51.188  16.642  1.00  0.00    -0.018 A 
ATOM      5  C   UNL     1      48.145  52.210  16.166  1.00  0.00    +0.010 A 
ATOM      6  C   UNL     1      48.032  53.429  16.842  1.00  0.00    +0.051 A 
ATOM      7  C   UNL     1      48.782  53.602  17.984  1.00  0.00    +0.165 A 
ATOM      8  C   UNL     1      49.754  51.409  17.812  1.00  0.00    +0.056 A 
ATOM      9  C   UNL     1      49.620  52.621  18.456  1.00  0.00    +0.166 A 
ATOM     10  O   UNL     1      48.799  54.716  18.762  1.00  0.00    -0.454 OA
ATOM     11  O   UNL     1      50.271  52.994  19.589  1.00  0.00    -0.454 OA
ATOM     12  C   UNL     1      49.730  54.317  19.789  1.00  0.00    +0.468 C 
ENDBRANCH   3   4
BRANCH   3  13
ATOM     13  C   UNL     1      50.308  49.854  14.863  1.00  0.00    +0.239 C 
ATOM     14  O   UNL     1      50.134  49.750  13.646  1.00  0.00    -0.273 OA
ATOM     15  N   UNL     1      51.574  50.035  15.342  1.00  0.00    -0.368 N 
ATOM     16  H   UNL     1      52.317  49.913  14.665  1.00  0.00    +0.159 HD
ATOM     17  H   UNL     1      51.799  49.814  16.305  1.00  0.00    +0.159 HD
ENDBRANCH   3  13
ENDBRANCH   1   3
BRANCH   1  18
ATOM     18  C   UNL     1      47.981  48.054  17.065  1.00  0.00    +0.198 C 
BRANCH  18  19
ATOM     19  C   UNL     1      47.209  48.582  18.289  1.00  0.00    +0.401 C 
ATOM     20  F   UNL     1      48.058  48.939  19.279  1.00  0.00    -0.170 F 
ATOM     21  F   UNL     1      46.392  47.622  18.781  1.00  0.00    -0.170 F 
ATOM     22  F   UNL     1      46.444  49.651  17.984  1.00  0.00    -0.170 F 
ENDBRANCH  18  19
ENDBRANCH   1  18
TORSDOF 5
ENDMDL
MODEL 3
REMARK VINA RESULT:    -7.079      3.827      5.731
REMARK INTER + INTRA:          -9.857
REMARK INTER:                  -9.216
REMARK INTRA:                  -0.640
REMARK UNBOUND:                -0.708
REMARK SMILES NC(=O)[C@@H](NCC(F)(F)F)c1ccc2c(c1)OCO2
REMARK SMILES IDX 5 1 4 3 11 4 12 5 13 6 14 7 16 8 15 9 19 10 17 11 18 12 2 13
REMARK SMILES IDX 3 14 1 15 6 18 7 19 8 20 9 21 10 22
REMARK H PARENT 5 2 1 16 1 17
ROOT
ATOM      1  N   UNL     1      49.634  50.582  18.746  1.00  0.00    -0.294 NA
ATOM      2  H   UNL     1      49.369  49.590  18.771  1.00  0.00    +0.124 HD
ENDROOT
BRANCH   1   3
ATOM      3  C   UNL     1      51.057  50.673  19.150  1.00  0.00    +0.174 C 
BRANCH   3   4
ATOM      4  C   UNL     1      51.336  51.946  19.938  1.00  0.00    -0.018 A 
ATOM      5  C   UNL     1      51.183  51.951  21.347  1.00  0.00    +0.010 A 
ATOM      6  C   UNL     1      51.414  53.111  22.092  1.00  0.00    +0.051 A 
ATOM      7  C   UNL     1      51.792  54.248  21.413  1.00  0.00    +0.165 A 
ATOM      8  C   UNL     1      51.722  53.132  19.283  1.00  0.00    +0.056 A 
ATOM      9  C   UNL     1      51.942  54.258  20.047  1.00  0.00    +0.166 A 
ATOM     10  O   UNL     1      52.055  55.458  21.972  1.00  0.00    -0.454 OA
ATOM     11  O   UNL     1      52.315  55.477  19.574  1.00  0.00    -0.454 OA
ATOM     12  C   UNL     1      52.404  56.228  20.803  1.00  0.00    +0.468 C 
ENDBRANCH   3   4
BRANCH   3  13
ATOM     13  C   UNL     1      51.422  49.369  19.920  1.00  0.00    +0.239 C 
ATOM     14  O   UNL     1      50.571  48.679  20.486  1.00  0.00    -0.273 OA
ATOM     15  N   UNL     1      52.719  48.940  19.894  1.00  0.00    -0.368 N 
ATOM     16  H   UNL     1      52.926  48.146  20.487  1.00  0.00    +0.159 HD
ATOM     17  H   UNL     1      53.476  49.593  19.731  1.00  0.00    +0.159 HD
ENDBRANCH   3  13
ENDBRANCH   1   3
BRANCH   1  18
ATOM     18  C   UNL     1      49.402  51.119  17.385  1.00  0.00    +0.198 C 
BRANCH  18  19
ATOM     19  C   UNL     1      48.295  52.184  17.268  1.00  0.00    +0.401 C 
ATOM     20  F   UNL     1      47.069  51.620  17.364  1.00  0.00    -0.170 F 
ATOM     21  F   UNL     1      48.362  52.804  16.067  1.00  0.00    -0.170 F 
ATOM     22  F   UNL     1      48.398  53.132  18.223  1.00  0.00    -0.170 F 
ENDBRANCH  18  19
ENDBRANCH   1  18
TORSDOF 5
ENDMDL
MODEL 4
REMARK VINA RESULT:    -7.074      4.759      6.571
REMARK INTER + INTRA:          -9.850
REMARK INTER:                  -9.150
REMARK INTRA:                  -0.700
REMARK UNBOUND:                -0.708
REMARK SMILES NC(=O)[C@@H](NCC(F)(F)F)c1ccc2c(c1)OCO2
REMARK SMILES IDX 5 1 4 3 11 4 12 5 13 6 14 7 16 8 15 9 19 10 17 11 18 12 2 13
REMARK SMILES IDX 3 14 1 15 6 18 7 19 8 20 9 21 10 22
REMARK H PARENT 5 2 1 16 1 17
ROOT
ATOM      1  N   UNL     1      51.563  52.297  19.439  1.00  0.00    -0.294 NA
ATOM      2  H   UNL     1      52.336  52.324  18.763  1.00  0.00    +0.124 HD
ENDROOT
BRANCH   1   3
ATOM      3  C   UNL     1      51.156  50.881  19.593  1.00  0.00    +0.174 C 
BRANCH   3   4
ATOM      4  C   UNL     1      49.861  50.585  18.848  1.00  0.00    -0.018 A 
ATOM      5  C   UNL     1      49.312  51.556  17.975  1.00  0.00    +0.010 A 
ATOM      6  C   UNL     1      48.115  51.318  17.293  1.00  0.00    +0.051 A 
ATOM      7  C   UNL     1      47.487  50.110  17.499  1.00  0.00    +0.165 A 
ATOM      8  C   UNL     1      49.185  49.363  19.031  1.00  0.00    +0.056 A 
ATOM      9  C   UNL     1      48.007  49.159  18.345  1.00  0.00    +0.166 A 
ATOM     10  O   UNL     1      46.322  49.711  16.925  1.00  0.00    -0.454 OA
ATOM     11  O   UNL     1      47.233  48.044  18.410  1.00  0.00    -0.454 OA
ATOM     12  C   UNL     1      46.176  48.392  17.492  1.00  0.00    +0.468 C 
ENDBRANCH   3   4
BRANCH   3  13
ATOM     13  C   UNL     1      52.351  49.986  19.148  1.00  0.00    +0.239 C 
ATOM     14  O   UNL     1      53.053  50.263  18.173  1.00  0.00    -0.273 OA
ATOM     15  N   UNL     1      52.675  48.904  19.918  1.00  0.00    -0.368 N 
ATOM     16  H   UNL     1      53.393  48.300  19.538  1.00  0.00    +0.159 HD
ATOM     17  H   UNL     1      51.981  48.465  20.511  1.00  0.00    +0.159 HD
ENDBRANCH   3  13
ENDBRANCH   1   3
BRANCH   1  18
ATOM     18  C   UNL     1      52.008  52.895  20.719  1.00  0.00    +0.198 C 
BRANCH  18  19
ATOM     19  C   UNL     1      50.885  53.301  21.692  1.00  0.00    +0.401 C 
ATOM     20  F   UNL     1      49.815  53.785  21.021  1.00  0.00    -0.170 F 
ATOM     21  F   UNL     1      51.314  54.274  22.528  1.00  0.00    -0.170 F 
ATOM     22  F   UNL     1      50.471  52.264  22.451  1.00  0.00    -0.170 F 
ENDBRANCH  18  19
ENDBRANCH   1  18
TORSDOF 5
ENDMDL
MODEL 5
REMARK VINA RESULT:    -6.202      3.110      3.993
REMARK INTER + INTRA:          -8.723
REMARK INTER:                  -8.339
REMARK INTRA:                  -0.384
REMARK UNBOUND:                -0.708
REMARK SMILES NC(=O)[C@@H](NCC(F)(F)F)c1ccc2c(c1)OCO2
REMARK SMILES IDX 5 1 4 3 11 4 12 5 13 6 14 7 16 8 15 9 19 10 17 11 18 12 2 13
REMARK SMILES IDX 3 14 1 15 6 18 7 19 8 20 9 21 10 22
REMARK H PARENT 5 2 1 16 1 17
ROOT
ATOM      1  N   UNL     1      51.957  56.180  21.150  1.00  0.00    -0.294 NA
ATOM      2  H   UNL     1      51.424  56.902  21.651  1.00  0.00    +0.124 HD
ENDROOT
BRANCH   1   3
ATOM      3  C   UNL     1      51.027  55.511  20.211  1.00  0.00    +0.174 C 
BRANCH   3   4
ATOM      4  C   UNL     1      51.007  54.003  20.420  1.00  0.00    -0.018 A 
ATOM      5  C   UNL     1      51.562  53.447  21.599  1.00  0.00    +0.010 A 
ATOM      6  C   UNL     1      51.574  52.064  21.808  1.00  0.00    +0.051 A 
ATOM      7  C   UNL     1      51.030  51.262  20.829  1.00  0.00    +0.165 A 
ATOM      8  C   UNL     1      50.464  53.145  19.444  1.00  0.00    +0.056 A 
ATOM      9  C   UNL     1      50.490  51.787  19.680  1.00  0.00    +0.166 A 
ATOM     10  O   UNL     1      50.958  49.905  20.863  1.00  0.00    -0.454 OA
ATOM     11  O   UNL     1      50.013  50.827  18.845  1.00  0.00    -0.454 OA
ATOM     12  C   UNL     1      50.295  49.637  19.610  1.00  0.00    +0.468 C 
ENDBRANCH   3   4
BRANCH   3  13
ATOM     13  C   UNL     1      49.629  56.181  20.360  1.00  0.00    +0.239 C 
ATOM     14  O   UNL     1      48.730  56.018  19.531  1.00  0.00    -0.273 OA
ATOM     15  N   UNL     1      49.372  56.905  21.489  1.00  0.00    -0.368 N 
ATOM     16  H   UNL     1      48.489  57.400  21.497  1.00  0.00    +0.159 HD
ATOM     17  H   UNL     1      50.127  57.320  22.020  1.00  0.00    +0.159 HD
ENDBRANCH   3  13
ENDBRANCH   1   3
BRANCH   1  18
ATOM     18  C   UNL     1      53.103  56.809  20.453  1.00  0.00    +0.198 C 
BRANCH  18  19
ATOM     19  C   UNL     1      53.657  58.091  21.104  1.00  0.00    +0.401 C 
ATOM     20  F   UNL     1      54.207  57.823  22.310  1.00  0.00    -0.170 F 
ATOM     21  F   UNL     1      52.662  58.986  21.302  1.00  0.00    -0.170 F 
ATOM     22  F   UNL     1      54.594  58.686  20.337  1.00  0.00    -0.170 F 
ENDBRANCH  18  19
ENDBRANCH   1  18
TORSDOF 5
ENDMDL
