MODEL 1
REMARK VINA RESULT:    -6.530      0.000      0.000
REMARK INTER + INTRA:         -11.517
REMARK INTER:                 -10.921
REMARK INTRA:                  -0.597
REMARK UNBOUND:                -0.597
REMARK SMILES CC[C@H](C)NC(=O)CC[NH2+]C[C@@H](O)COCC(C)C
REMARK SMILES IDX 10 1 9 4 8 5 6 6 5 7 7 8 3 10 4 11 2 12 1 13 11 14 12 15
REMARK SMILES IDX 14 16 15 17 16 18 17 19 18 20 19 21 13 22
REMARK H PARENT 10 2 10 3 5 9 13 23
ROOT
ATOM      1  N   UNL     1      51.225  51.097  21.616  1.00  0.00    -0.344 N 
ATOM      2  H   UNL     1      50.490  50.429  21.360  1.00  0.00    +0.346 HD
ATOM      3  H   UNL     1      51.660  50.751  22.492  1.00  0.00    +0.346 HD
ENDROOT
BRANCH   1   4
ATOM      4  C   UNL     1      50.655  52.464  21.831  1.00  0.00    +0.270 C 
BRANCH   4   5
ATOM      5  C   UNL     1      51.774  53.446  22.143  1.00  0.00    +0.161 C 
BRANCH   5   6
ATOM      6  C   UNL     1      51.505  54.739  21.413  1.00  0.00    +0.225 C 
ATOM      7  N   UNL     1      50.206  54.875  20.986  1.00  0.00    -0.353 N 
ATOM      8  O   UNL     1      52.387  55.568  21.226  1.00  0.00    -0.275 OA
ATOM      9  H   UNL     1      49.498  54.235  21.326  1.00  0.00    +0.163 HD
BRANCH   7  10
ATOM     10  C   UNL     1      49.734  56.097  20.336  1.00  0.00    +0.078 C 
ATOM     11  C   UNL     1      48.657  55.760  19.307  1.00  0.00    +0.031 C 
BRANCH  10  12
ATOM     12  C   UNL     1      49.269  57.141  21.365  1.00  0.00    +0.021 C 
ATOM     13  C   UNL     1      48.056  57.959  20.939  1.00  0.00    +0.006 C 
ENDBRANCH  10  12
ENDBRANCH   7  10
ENDBRANCH   5   6
ENDBRANCH   4   5
ENDBRANCH   1   4
BRANCH   1  14
ATOM     14  C   UNL     1      52.339  51.026  20.598  1.00  0.00    +0.295 C 
BRANCH  14  15
ATOM     15  C   UNL     1      51.944  50.000  19.523  1.00  0.00    +0.194 C 
BRANCH  15  16
ATOM     16  C   UNL     1      50.440  50.051  19.244  1.00  0.00    +0.197 C 
BRANCH  16  17
ATOM     17  O   UNL     1      49.944  48.718  19.226  1.00  0.00    -0.378 OA
BRANCH  17  18
ATOM     18  C   UNL     1      49.044  48.496  18.134  1.00  0.00    +0.163 C 
BRANCH  18  19
ATOM     19  C   UNL     1      47.713  49.196  18.427  1.00  0.00    +0.009 C 
ATOM     20  C   UNL     1      46.641  48.172  18.791  1.00  0.00    +0.010 C 
ATOM     21  C   UNL     1      47.257  50.046  17.239  1.00  0.00    +0.010 C 
ENDBRANCH  18  19
ENDBRANCH  17  18
ENDBRANCH  16  17
ENDBRANCH  15  16
BRANCH  15  22
ATOM     22  O   UNL     1      52.361  48.704  19.988  1.00  0.00    -0.385 OA
ATOM     23  H   UNL     1      53.191  48.479  19.521  1.00  0.00    +0.211 HD
ENDBRANCH  15  22
ENDBRANCH  14  15
ENDBRANCH   1  14
TORSDOF 12
ENDMDL
MODEL 2
REMARK VINA RESULT:    -6.276      2.203      6.542
REMARK INTER + INTRA:         -11.091
REMARK INTER:                 -10.089
REMARK INTRA:                  -1.003
REMARK UNBOUND:                -0.597
REMARK SMILES CC[C@H](C)NC(=O)CC[NH2+]C[C@@H](O)COCC(C)C
REMARK SMILES IDX 10 1 9 4 8 5 6 6 5 7 7 8 3 10 4 11 2 12 1 13 11 14 12 15
REMARK SMILES IDX 14 16 15 17 16 18 17 19 18 20 19 21 13 22
REMARK H PARENT 10 2 10 3 5 9 13 23
ROOT
ATOM      1  N   UNL     1      52.620  50.696  19.064  1.00  0.00    -0.344 N 
ATOM      2  H   UNL     1      51.954  50.825  18.294  1.00  0.00    +0.346 HD
ATOM      3  H   UNL     1      53.564  50.622  18.642  1.00  0.00    +0.346 HD
ENDROOT
BRANCH   1   4
ATOM      4  C   UNL     1      52.306  49.457  19.842  1.00  0.00    +0.270 C 
BRANCH   4   5
ATOM      5  C   UNL     1      50.868  49.508  20.334  1.00  0.00    +0.161 C 
BRANCH   5   6
ATOM      6  C   UNL     1      49.949  49.617  19.141  1.00  0.00    +0.225 C 
ATOM      7  N   UNL     1      49.451  48.411  18.712  1.00  0.00    -0.353 N 
ATOM      8  O   UNL     1      49.697  50.697  18.620  1.00  0.00    -0.275 OA
ATOM      9  H   UNL     1      49.562  47.589  19.293  1.00  0.00    +0.163 HD
BRANCH   7  10
ATOM     10  C   UNL     1      48.477  48.324  17.624  1.00  0.00    +0.078 C 
ATOM     11  C   UNL     1      48.658  47.011  16.865  1.00  0.00    +0.031 C 
BRANCH  10  12
ATOM     12  C   UNL     1      47.040  48.524  18.134  1.00  0.00    +0.021 C 
ATOM     13  C   UNL     1      46.268  49.640  17.439  1.00  0.00    +0.006 C 
ENDBRANCH  10  12
ENDBRANCH   7  10
ENDBRANCH   5   6
ENDBRANCH   4   5
ENDBRANCH   1   4
BRANCH   1  14
ATOM     14  C   UNL     1      52.682  51.963  19.885  1.00  0.00    +0.295 C 
BRANCH  14  15
ATOM     15  C   UNL     1      52.702  53.161  18.921  1.00  0.00    +0.194 C 
BRANCH  15  16
ATOM     16  C   UNL     1      51.322  53.815  18.831  1.00  0.00    +0.197 C 
BRANCH  16  17
ATOM     17  O   UNL     1      50.745  53.823  20.130  1.00  0.00    -0.378 OA
BRANCH  17  18
ATOM     18  C   UNL     1      49.535  54.589  20.175  1.00  0.00    +0.163 C 
BRANCH  18  19
ATOM     19  C   UNL     1      49.876  56.052  20.482  1.00  0.00    +0.009 C 
ATOM     20  C   UNL     1      50.748  56.144  21.732  1.00  0.00    +0.010 C 
ATOM     21  C   UNL     1      48.610  56.895  20.652  1.00  0.00    +0.010 C 
ENDBRANCH  18  19
ENDBRANCH  17  18
ENDBRANCH  16  17
ENDBRANCH  15  16
BRANCH  15  22
ATOM     22  O   UNL     1      53.153  52.679  17.643  1.00  0.00    -0.385 OA
ATOM     23  H   UNL     1      53.567  53.433  17.175  1.00  0.00    +0.211 HD
ENDBRANCH  15  22
ENDBRANCH  14  15
ENDBRANCH   1  14
TORSDOF 12
ENDMDL
MODEL 3
REMARK VINA RESULT:    -6.129      1.916      6.828
REMARK INTER + INTRA:         -10.846
REMARK INTER:                 -10.109
REMARK INTRA:                  -0.737
REMARK UNBOUND:                -0.597
REMARK SMILES CC[C@H](C)NC(=O)CC[NH2+]C[C@@H](O)COCC(C)C
REMARK SMILES IDX 10 1 9 4 8 5 6 6 5 7 7 8 3 10 4 11 2 12 1 13 11 14 12 15
REMARK SMILES IDX 14 16 15 17 16 18 17 19 18 20 19 21 13 22
REMARK H PARENT 10 2 10 3 5 9 13 23
ROOT
ATOM      1  N   UNL     1      51.589  50.496  21.618  1.00  0.00    -0.344 N 
ATOM      2  H   UNL     1      52.423  49.974  21.909  1.00  0.00    +0.346 HD
ATOM      3  H   UNL     1      50.995  50.616  22.460  1.00  0.00    +0.346 HD
ENDROOT
BRANCH   1   4
ATOM      4  C   UNL     1      50.835  49.753  20.561  1.00  0.00    +0.270 C 
BRANCH   4   5
ATOM      5  C   UNL     1      51.236  50.265  19.186  1.00  0.00    +0.161 C 
BRANCH   5   6
ATOM      6  C   UNL     1      50.062  50.116  18.249  1.00  0.00    +0.225 C 
ATOM      7  N   UNL     1      49.421  48.905  18.350  1.00  0.00    -0.353 N 
ATOM      8  O   UNL     1      49.741  51.009  17.474  1.00  0.00    -0.275 OA
ATOM      9  H   UNL     1      49.633  48.291  19.128  1.00  0.00    +0.163 HD
BRANCH   7  10
ATOM     10  C   UNL     1      48.210  48.609  17.585  1.00  0.00    +0.078 C 
ATOM     11  C   UNL     1      48.358  47.269  16.870  1.00  0.00    +0.031 C 
BRANCH  10  12
ATOM     12  C   UNL     1      46.953  48.678  18.468  1.00  0.00    +0.021 C 
ATOM     13  C   UNL     1      45.963  47.539  18.255  1.00  0.00    +0.006 C 
ENDBRANCH  10  12
ENDBRANCH   7  10
ENDBRANCH   5   6
ENDBRANCH   4   5
ENDBRANCH   1   4
BRANCH   1  14
ATOM     14  C   UNL     1      51.988  51.904  21.244  1.00  0.00    +0.295 C 
BRANCH  14  15
ATOM     15  C   UNL     1      50.941  52.871  21.821  1.00  0.00    +0.194 C 
BRANCH  15  16
ATOM     16  C   UNL     1      50.284  53.694  20.711  1.00  0.00    +0.197 C 
BRANCH  16  17
ATOM     17  O   UNL     1      51.157  54.765  20.373  1.00  0.00    -0.378 OA
BRANCH  17  18
ATOM     18  C   UNL     1      50.440  55.913  19.904  1.00  0.00    +0.163 C 
BRANCH  18  19
ATOM     19  C   UNL     1      49.447  56.361  20.982  1.00  0.00    +0.009 C 
ATOM     20  C   UNL     1      48.151  56.853  20.341  1.00  0.00    +0.010 C 
ATOM     21  C   UNL     1      50.047  57.450  21.874  1.00  0.00    +0.010 C 
ENDBRANCH  18  19
ENDBRANCH  17  18
ENDBRANCH  16  17
ENDBRANCH  15  16
BRANCH  15  22
ATOM     22  O   UNL     1      51.608  53.704  22.786  1.00  0.00    -0.385 OA
ATOM     23  H   UNL     1      52.562  53.701  22.565  1.00  0.00    +0.211 HD
ENDBRANCH  15  22
ENDBRANCH  14  15
ENDBRANCH   1  14
TORSDOF 12
ENDMDL
MODEL 4
REMARK VINA RESULT:    -5.791      2.678      3.720
REMARK INTER + INTRA:         -10.281
REMARK INTER:                  -9.591
REMARK INTRA:                  -0.690
REMARK UNBOUND:                -0.597
REMARK SMILES CC[C@H](C)NC(=O)CC[NH2+]C[C@@H](O)COCC(C)C
REMARK SMILES IDX 10 1 9 4 8 5 6 6 5 7 7 8 3 10 4 11 2 12 1 13 11 14 12 15
REMARK SMILES IDX 14 16 15 17 16 18 17 19 18 20 19 21 13 22
REMARK H PARENT 10 2 10 3 5 9 13 23
ROOT
ATOM      1  N   UNL     1      51.128  50.382  16.498  1.00  0.00    -0.344 N 
ATOM      2  H   UNL     1      51.537  49.447  16.393  1.00  0.00    +0.346 HD
ATOM      3  H   UNL     1      51.701  51.032  15.928  1.00  0.00    +0.346 HD
ENDROOT
BRANCH   1   4
ATOM      4  C   UNL     1      51.138  50.812  17.931  1.00  0.00    +0.270 C 
BRANCH   4   5
ATOM      5  C   UNL     1      50.102  51.906  18.148  1.00  0.00    +0.161 C 
BRANCH   5   6
ATOM      6  C   UNL     1      50.790  53.120  18.722  1.00  0.00    +0.225 C 
ATOM      7  N   UNL     1      50.062  53.761  19.696  1.00  0.00    -0.353 N 
ATOM      8  O   UNL     1      51.892  53.482  18.329  1.00  0.00    -0.275 OA
ATOM      9  H   UNL     1      49.246  53.308  20.089  1.00  0.00    +0.163 HD
BRANCH   7  10
ATOM     10  C   UNL     1      50.600  54.906  20.430  1.00  0.00    +0.078 C 
ATOM     11  C   UNL     1      49.486  55.908  20.726  1.00  0.00    +0.031 C 
BRANCH  10  12
ATOM     12  C   UNL     1      51.354  54.463  21.695  1.00  0.00    +0.021 C 
ATOM     13  C   UNL     1      51.647  55.583  22.686  1.00  0.00    +0.006 C 
ENDBRANCH  10  12
ENDBRANCH   7  10
ENDBRANCH   5   6
ENDBRANCH   4   5
ENDBRANCH   1   4
BRANCH   1  14
ATOM     14  C   UNL     1      49.770  50.409  15.836  1.00  0.00    +0.295 C 
BRANCH  14  15
ATOM     15  C   UNL     1      49.596  49.103  15.043  1.00  0.00    +0.194 C 
BRANCH  15  16
ATOM     16  C   UNL     1      49.142  47.963  15.957  1.00  0.00    +0.197 C 
BRANCH  16  17
ATOM     17  O   UNL     1      47.742  48.092  16.171  1.00  0.00    -0.378 OA
BRANCH  17  18
ATOM     18  C   UNL     1      47.397  47.949  17.553  1.00  0.00    +0.163 C 
BRANCH  18  19
ATOM     19  C   UNL     1      46.254  48.914  17.889  1.00  0.00    +0.009 C 
ATOM     20  C   UNL     1      44.934  48.394  17.325  1.00  0.00    +0.010 C 
ATOM     21  C   UNL     1      46.541  50.322  17.362  1.00  0.00    +0.010 C 
ENDBRANCH  18  19
ENDBRANCH  17  18
ENDBRANCH  16  17
ENDBRANCH  15  16
BRANCH  15  22
ATOM     22  O   UNL     1      50.853  48.813  14.405  1.00  0.00    -0.385 OA
ATOM     23  H   UNL     1      50.799  49.146  13.486  1.00  0.00    +0.211 HD
ENDBRANCH  15  22
ENDBRANCH  14  15
ENDBRANCH   1  14
TORSDOF 12
ENDMDL
MODEL 5
REMARK VINA RESULT:    -5.704      2.140      7.223
REMARK INTER + INTRA:         -10.136
REMARK INTER:                  -9.549
REMARK INTRA:                  -0.587
REMARK UNBOUND:                -0.597
REMARK SMILES CC[C@H](C)NC(=O)CC[NH2+]C[C@@H](O)COCC(C)C
REMARK SMILES IDX 10 1 9 4 8 5 6 6 5 7 7 8 3 10 4 11 2 12 1 13 11 14 12 15
REMARK SMILES IDX 14 16 15 17 16 18 17 19 18 20 19 21 13 22
REMARK H PARENT 10 2 10 3 5 9 13 23
ROOT
ATOM      1  N   UNL     1      51.376  50.635  18.909  1.00  0.00    -0.344 N 
ATOM      2  H   UNL     1      51.428  50.850  17.907  1.00  0.00    +0.346 HD
ATOM      3  H   UNL     1      52.118  49.939  19.111  1.00  0.00    +0.346 HD
ENDROOT
BRANCH   1   4
ATOM      4  C   UNL     1      50.036  50.075  19.267  1.00  0.00    +0.270 C 
BRANCH   4   5
ATOM      5  C   UNL     1      49.087  50.214  18.086  1.00  0.00    +0.161 C 
BRANCH   5   6
ATOM      6  C   UNL     1      48.333  48.919  17.912  1.00  0.00    +0.225 C 
ATOM      7  N   UNL     1      46.975  49.040  18.086  1.00  0.00    -0.353 N 
ATOM      8  O   UNL     1      48.907  47.870  17.648  1.00  0.00    -0.275 OA
ATOM      9  H   UNL     1      46.557  49.961  18.129  1.00  0.00    +0.163 HD
BRANCH   7  10
ATOM     10  C   UNL     1      46.069  47.912  17.874  1.00  0.00    +0.078 C 
ATOM     11  C   UNL     1      45.501  47.438  19.210  1.00  0.00    +0.031 C 
BRANCH  10  12
ATOM     12  C   UNL     1      44.974  48.252  16.848  1.00  0.00    +0.021 C 
ATOM     13  C   UNL     1      45.461  48.348  15.407  1.00  0.00    +0.006 C 
ENDBRANCH  10  12
ENDBRANCH   7  10
ENDBRANCH   5   6
ENDBRANCH   4   5
ENDBRANCH   1   4
BRANCH   1  14
ATOM     14  C   UNL     1      51.789  51.853  19.702  1.00  0.00    +0.295 C 
BRANCH  14  15
ATOM     15  C   UNL     1      51.484  51.588  21.185  1.00  0.00    +0.194 C 
BRANCH  15  16
ATOM     16  C   UNL     1      51.354  52.900  21.961  1.00  0.00    +0.197 C 
BRANCH  16  17
ATOM     17  O   UNL     1      51.136  53.952  21.029  1.00  0.00    -0.378 OA
BRANCH  17  18
ATOM     18  C   UNL     1      51.140  55.237  21.661  1.00  0.00    +0.163 C 
BRANCH  18  19
ATOM     19  C   UNL     1      50.276  56.204  20.842  1.00  0.00    +0.009 C 
ATOM     20  C   UNL     1      49.754  57.332  21.728  1.00  0.00    +0.010 C 
ATOM     21  C   UNL     1      49.112  55.474  20.167  1.00  0.00    +0.010 C 
ENDBRANCH  18  19
ENDBRANCH  17  18
ENDBRANCH  16  17
ENDBRANCH  15  16
BRANCH  15  22
ATOM     22  O   UNL     1      52.541  50.761  21.702  1.00  0.00    -0.385 OA
ATOM     23  H   UNL     1      52.214  49.838  21.708  1.00  0.00    +0.211 HD
ENDBRANCH  15  22
ENDBRANCH  14  15
ENDBRANCH   1  14
TORSDOF 12
ENDMDL
