MODEL 1
REMARK VINA RESULT:    -7.184      0.000      0.000
REMARK INTER + INTRA:          -9.400
REMARK INTER:                  -8.864
REMARK INTRA:                  -0.536
REMARK UNBOUND:                -0.536
REMARK SMILES NC(=O)CNC(=O)[C@H]1CCCN1C1CC[NH2+]CC1
REMARK SMILES IDX 6 1 7 2 5 3 8 5 10 6 9 7 11 8 12 9 13 10 14 11 18 12 15 13
REMARK SMILES IDX 17 14 16 15 4 18 2 19 3 20 1 21
REMARK H PARENT 5 4 16 16 16 17 1 22 1 23
ROOT
ATOM      1  C   UNL     1      50.993  54.096  19.130  1.00  0.00    +0.237 C 
ATOM      2  O   UNL     1      51.977  54.035  18.397  1.00  0.00    -0.273 OA
ATOM      3  N   UNL     1      50.878  54.996  20.166  1.00  0.00    -0.346 N 
ATOM      4  H   UNL     1      50.129  54.807  20.827  1.00  0.00    +0.164 HD
ENDROOT
BRANCH   1   5
ATOM      5  C   UNL     1      49.788  53.158  18.951  1.00  0.00    +0.146 C 
ATOM      6  C   UNL     1      48.636  52.691  16.870  1.00  0.00    +0.018 C 
ATOM      7  C   UNL     1      48.761  53.733  17.972  1.00  0.00    +0.030 C 
ATOM      8  C   UNL     1      49.087  51.405  17.538  1.00  0.00    +0.085 C 
ATOM      9  N   UNL     1      50.213  51.869  18.342  1.00  0.00    -0.289 NA
BRANCH   9  10
ATOM     10  C   UNL     1      50.837  50.931  19.276  1.00  0.00    +0.068 C 
ATOM     11  C   UNL     1      52.280  50.635  18.827  1.00  0.00    +0.080 C 
ATOM     12  C   UNL     1      50.078  49.612  19.509  1.00  0.00    +0.080 C 
ATOM     13  C   UNL     1      52.994  49.755  19.840  1.00  0.00    +0.262 C 
ATOM     14  C   UNL     1      50.808  48.744  20.523  1.00  0.00    +0.262 C 
ATOM     15  N   UNL     1      52.206  48.505  20.056  1.00  0.00    -0.346 N 
ATOM     16  H   UNL     1      52.695  47.916  20.746  1.00  0.00    +0.346 HD
ATOM     17  H   UNL     1      52.192  47.953  19.186  1.00  0.00    +0.346 HD
ENDBRANCH   9  10
ENDBRANCH   1   5
BRANCH   3  18
ATOM     18  C   UNL     1      52.046  55.668  20.701  1.00  0.00    +0.215 C 
BRANCH  18  19
ATOM     19  C   UNL     1      51.802  55.966  22.180  1.00  0.00    +0.236 C 
ATOM     20  O   UNL     1      51.873  55.111  23.059  1.00  0.00    -0.273 OA
ATOM     21  N   UNL     1      51.429  57.246  22.473  1.00  0.00    -0.368 N 
ATOM     22  H   UNL     1      51.643  58.013  21.848  1.00  0.00    +0.159 HD
ATOM     23  H   UNL     1      51.346  57.472  23.458  1.00  0.00    +0.159 HD
ENDBRANCH  18  19
ENDBRANCH   3  18
TORSDOF 4
ENDMDL
MODEL 2
REMARK VINA RESULT:    -7.068      2.676      4.295
REMARK INTER + INTRA:          -9.257
REMARK INTER:                  -8.652
REMARK INTRA:                  -0.605
REMARK UNBOUND:                -0.536
REMARK SMILES NC(=O)CNC(=O)[C@H]1CCCN1C1CC[NH2+]CC1
REMARK SMILES IDX 6 1 7 2 5 3 8 5 10 6 9 7 11 8 12 9 13 10 14 11 18 12 15 13
REMARK SMILES IDX 17 14 16 15 4 18 2 19 3 20 1 21
REMARK H PARENT 5 4 16 16 16 17 1 22 1 23
ROOT
ATOM      1  C   UNL     1      50.857  56.935  21.755  1.00  0.00    +0.237 C 
ATOM      2  O   UNL     1      51.239  56.414  22.800  1.00  0.00    -0.273 OA
ATOM      3  N   UNL     1      51.574  57.903  21.086  1.00  0.00    -0.346 N 
ATOM      4  H   UNL     1      51.063  58.406  20.367  1.00  0.00    +0.164 HD
ENDROOT
BRANCH   1   5
ATOM      5  C   UNL     1      49.524  56.546  21.095  1.00  0.00    +0.146 C 
ATOM      6  C   UNL     1      48.238  57.910  19.558  1.00  0.00    +0.018 C 
ATOM      7  C   UNL     1      48.553  57.729  21.036  1.00  0.00    +0.030 C 
ATOM      8  C   UNL     1      48.524  56.545  18.959  1.00  0.00    +0.085 C 
ATOM      9  N   UNL     1      49.736  56.156  19.676  1.00  0.00    -0.289 NA
BRANCH   9  10
ATOM     10  C   UNL     1      50.253  54.801  19.486  1.00  0.00    +0.068 C 
ATOM     11  C   UNL     1      51.749  54.863  19.126  1.00  0.00    +0.080 C 
ATOM     12  C   UNL     1      49.501  53.933  18.461  1.00  0.00    +0.080 C 
ATOM     13  C   UNL     1      52.344  53.467  19.038  1.00  0.00    +0.262 C 
ATOM     14  C   UNL     1      50.112  52.542  18.385  1.00  0.00    +0.262 C 
ATOM     15  N   UNL     1      51.564  52.655  18.057  1.00  0.00    -0.346 N 
ATOM     16  H   UNL     1      51.972  51.710  18.006  1.00  0.00    +0.346 HD
ATOM     17  H   UNL     1      51.678  53.053  17.113  1.00  0.00    +0.346 HD
ENDBRANCH   9  10
ENDBRANCH   1   5
BRANCH   3  18
ATOM     18  C   UNL     1      52.630  58.640  21.754  1.00  0.00    +0.215 C 
BRANCH  18  19
ATOM     19  C   UNL     1      53.947  57.891  21.556  1.00  0.00    +0.236 C 
ATOM     20  O   UNL     1      54.720  57.635  22.476  1.00  0.00    -0.273 OA
ATOM     21  N   UNL     1      54.259  57.571  20.266  1.00  0.00    -0.368 N 
ATOM     22  H   UNL     1      53.543  57.499  19.554  1.00  0.00    +0.159 HD
ATOM     23  H   UNL     1      55.088  57.003  20.136  1.00  0.00    +0.159 HD
ENDBRANCH  18  19
ENDBRANCH   3  18
TORSDOF 4
ENDMDL
MODEL 3
REMARK VINA RESULT:    -6.987      3.691      5.247
REMARK INTER + INTRA:          -9.157
REMARK INTER:                  -8.462
REMARK INTRA:                  -0.695
REMARK UNBOUND:                -0.536
REMARK SMILES NC(=O)CNC(=O)[C@H]1CCCN1C1CC[NH2+]CC1
REMARK SMILES IDX 6 1 7 2 5 3 8 5 10 6 9 7 11 8 12 9 13 10 14 11 18 12 15 13
REMARK SMILES IDX 17 14 16 15 4 18 2 19 3 20 1 21
REMARK H PARENT 5 4 16 16 16 17 1 22 1 23
ROOT
ATOM      1  C   UNL     1      49.855  49.582  19.094  1.00  0.00    +0.237 C 
ATOM      2  O   UNL     1      49.609  48.864  20.059  1.00  0.00    -0.273 OA
ATOM      3  N   UNL     1      51.135  49.882  18.682  1.00  0.00    -0.346 N 
ATOM      4  H   UNL     1      51.212  50.649  18.020  1.00  0.00    +0.164 HD
ENDROOT
BRANCH   1   5
ATOM      5  C   UNL     1      48.738  50.219  18.250  1.00  0.00    +0.146 C 
ATOM      6  C   UNL     1      49.012  51.305  16.101  1.00  0.00    +0.018 C 
ATOM      7  C   UNL     1      49.196  51.525  17.595  1.00  0.00    +0.030 C 
ATOM      8  C   UNL     1      47.960  50.214  16.024  1.00  0.00    +0.085 C 
ATOM      9  N   UNL     1      48.368  49.333  17.115  1.00  0.00    -0.289 NA
BRANCH   9  10
ATOM     10  C   UNL     1      47.495  48.216  17.473  1.00  0.00    +0.068 C 
ATOM     11  C   UNL     1      46.967  47.539  16.195  1.00  0.00    +0.080 C 
ATOM     12  C   UNL     1      46.322  48.555  18.410  1.00  0.00    +0.080 C 
ATOM     13  C   UNL     1      46.150  46.303  16.531  1.00  0.00    +0.262 C 
ATOM     14  C   UNL     1      45.514  47.307  18.735  1.00  0.00    +0.262 C 
ATOM     15  N   UNL     1      45.046  46.675  17.465  1.00  0.00    -0.346 N 
ATOM     16  H   UNL     1      44.500  45.831  17.691  1.00  0.00    +0.346 HD
ATOM     17  H   UNL     1      44.388  47.307  16.985  1.00  0.00    +0.346 HD
ENDBRANCH   9  10
ENDBRANCH   1   5
BRANCH   3  18
ATOM     18  C   UNL     1      52.266  49.689  19.569  1.00  0.00    +0.215 C 
BRANCH  18  19
ATOM     19  C   UNL     1      52.492  50.978  20.357  1.00  0.00    +0.236 C 
ATOM     20  O   UNL     1      52.804  52.043  19.831  1.00  0.00    -0.273 OA
ATOM     21  N   UNL     1      52.391  50.869  21.714  1.00  0.00    -0.368 N 
ATOM     22  H   UNL     1      51.866  50.118  22.144  1.00  0.00    +0.159 HD
ATOM     23  H   UNL     1      52.458  51.734  22.237  1.00  0.00    +0.159 HD
ENDBRANCH  18  19
ENDBRANCH   3  18
TORSDOF 4
ENDMDL
MODEL 4
REMARK VINA RESULT:    -6.836      1.743      5.610
REMARK INTER + INTRA:          -8.970
REMARK INTER:                  -8.271
REMARK INTRA:                  -0.699
REMARK UNBOUND:                -0.536
REMARK SMILES NC(=O)CNC(=O)[C@H]1CCCN1C1CC[NH2+]CC1
REMARK SMILES IDX 6 1 7 2 5 3 8 5 10 6 9 7 11 8 12 9 13 10 14 11 18 12 15 13
REMARK SMILES IDX 17 14 16 15 4 18 2 19 3 20 1 21
REMARK H PARENT 5 4 16 16 16 17 1 22 1 23
ROOT
ATOM      1  C   UNL     1      51.635  53.031  18.589  1.00  0.00    +0.237 C 
ATOM      2  O   UNL     1      52.753  53.051  18.079  1.00  0.00    -0.273 OA
ATOM      3  N   UNL     1      51.073  51.897  19.133  1.00  0.00    -0.346 N 
ATOM      4  H   UNL     1      50.076  51.951  19.322  1.00  0.00    +0.164 HD
ENDROOT
BRANCH   1   5
ATOM      5  C   UNL     1      50.754  54.289  18.662  1.00  0.00    +0.146 C 
ATOM      6  C   UNL     1      48.396  54.352  19.217  1.00  0.00    +0.018 C 
ATOM      7  C   UNL     1      49.359  54.039  18.082  1.00  0.00    +0.030 C 
ATOM      8  C   UNL     1      49.187  55.287  20.113  1.00  0.00    +0.085 C 
ATOM      9  N   UNL     1      50.514  54.680  20.076  1.00  0.00    -0.289 NA
BRANCH   9  10
ATOM     10  C   UNL     1      51.625  55.391  20.708  1.00  0.00    +0.068 C 
ATOM     11  C   UNL     1      51.229  55.805  22.137  1.00  0.00    +0.080 C 
ATOM     12  C   UNL     1      52.165  56.611  19.939  1.00  0.00    +0.080 C 
ATOM     13  C   UNL     1      52.402  56.444  22.862  1.00  0.00    +0.262 C 
ATOM     14  C   UNL     1      53.337  57.238  20.680  1.00  0.00    +0.262 C 
ATOM     15  N   UNL     1      52.911  57.599  22.065  1.00  0.00    -0.346 N 
ATOM     16  H   UNL     1      53.707  58.024  22.561  1.00  0.00    +0.346 HD
ATOM     17  H   UNL     1      52.189  58.334  22.026  1.00  0.00    +0.346 HD
ENDBRANCH   9  10
ENDBRANCH   1   5
BRANCH   3  18
ATOM     18  C   UNL     1      51.591  50.582  18.810  1.00  0.00    +0.215 C 
BRANCH  18  19
ATOM     19  C   UNL     1      52.431  50.086  19.986  1.00  0.00    +0.236 C 
ATOM     20  O   UNL     1      52.817  50.820  20.893  1.00  0.00    -0.273 OA
ATOM     21  N   UNL     1      52.793  48.771  19.944  1.00  0.00    -0.368 N 
ATOM     22  H   UNL     1      52.269  48.098  19.399  1.00  0.00    +0.159 HD
ATOM     23  H   UNL     1      53.279  48.416  20.759  1.00  0.00    +0.159 HD
ENDBRANCH  18  19
ENDBRANCH   3  18
TORSDOF 4
ENDMDL
MODEL 5
REMARK VINA RESULT:    -6.630      1.986      2.897
REMARK INTER + INTRA:          -8.716
REMARK INTER:                  -8.409
REMARK INTRA:                  -0.307
REMARK UNBOUND:                -0.536
REMARK SMILES NC(=O)CNC(=O)[C@H]1CCCN1C1CC[NH2+]CC1
REMARK SMILES IDX 6 1 7 2 5 3 8 5 10 6 9 7 11 8 12 9 13 10 14 11 18 12 15 13
REMARK SMILES IDX 17 14 16 15 4 18 2 19 3 20 1 21
REMARK H PARENT 5 4 16 16 16 17 1 22 1 23
ROOT
ATOM      1  C   UNL     1      51.451  55.089  20.907  1.00  0.00    +0.237 C 
ATOM      2  O   UNL     1      52.019  54.405  21.754  1.00  0.00    -0.273 OA
ATOM      3  N   UNL     1      52.032  56.183  20.304  1.00  0.00    -0.346 N 
ATOM      4  H   UNL     1      51.396  56.788  19.792  1.00  0.00    +0.164 HD
ENDROOT
BRANCH   1   5
ATOM      5  C   UNL     1      50.018  54.779  20.443  1.00  0.00    +0.146 C 
ATOM      6  C   UNL     1      48.625  56.200  19.059  1.00  0.00    +0.018 C 
ATOM      7  C   UNL     1      49.126  56.023  20.484  1.00  0.00    +0.030 C 
ATOM      8  C   UNL     1      48.739  54.810  18.462  1.00  0.00    +0.085 C 
ATOM      9  N   UNL     1      50.009  54.353  19.018  1.00  0.00    -0.289 NA
BRANCH   9  10
ATOM     10  C   UNL     1      50.408  52.963  18.796  1.00  0.00    +0.068 C 
ATOM     11  C   UNL     1      51.898  52.906  18.415  1.00  0.00    +0.080 C 
ATOM     12  C   UNL     1      49.571  52.182  17.766  1.00  0.00    +0.080 C 
ATOM     13  C   UNL     1      52.373  51.467  18.292  1.00  0.00    +0.262 C 
ATOM     14  C   UNL     1      50.062  50.745  17.655  1.00  0.00    +0.262 C 
ATOM     15  N   UNL     1      51.514  50.743  17.308  1.00  0.00    -0.346 N 
ATOM     16  H   UNL     1      51.840  49.768  17.233  1.00  0.00    +0.346 HD
ATOM     17  H   UNL     1      51.648  51.149  16.370  1.00  0.00    +0.346 HD
ENDBRANCH   9  10
ENDBRANCH   1   5
BRANCH   3  18
ATOM     18  C   UNL     1      53.193  56.824  20.889  1.00  0.00    +0.215 C 
BRANCH  18  19
ATOM     19  C   UNL     1      52.730  58.061  21.659  1.00  0.00    +0.236 C 
ATOM     20  O   UNL     1      53.448  59.037  21.858  1.00  0.00    -0.273 OA
ATOM     21  N   UNL     1      51.470  57.997  22.181  1.00  0.00    -0.368 N 
ATOM     22  H   UNL     1      50.774  57.368  21.800  1.00  0.00    +0.159 HD
ATOM     23  H   UNL     1      51.127  58.843  22.620  1.00  0.00    +0.159 HD
ENDBRANCH  18  19
ENDBRANCH   3  18
TORSDOF 4
ENDMDL
