MODEL 1
REMARK VINA RESULT:    -9.626      0.000      0.000
REMARK INTER + INTRA:         -13.414
REMARK INTER:                 -12.440
REMARK INTRA:                  -0.974
REMARK UNBOUND:                -0.974
REMARK SMILES Cc1ccc(S(=O)(=O)NCNC(=O)Nc2ccccc2C)cc1
REMARK SMILES IDX 9 1 6 3 7 4 8 5 5 6 2 7 3 8 23 9 4 10 22 11 1 12 10 13 11 14
REMARK SMILES IDX 12 15 13 16 14 17 15 20 16 21 20 22 17 23 19 24 18 25 21 26
REMARK H PARENT 9 2 11 18 14 19
ROOT
ATOM      1  N   UNL     1      52.044  54.566  19.090  1.00  0.00    -0.193 NA
ATOM      2  H   UNL     1      51.100  54.572  18.704  1.00  0.00    +0.143 HD
ENDROOT
BRANCH   1   3
ATOM      3  S   UNL     1      52.086  55.263  20.616  1.00  0.00    +0.242 S 
ATOM      4  O   UNL     1      53.164  56.225  20.646  1.00  0.00    -0.207 OA
ATOM      5  O   UNL     1      51.998  54.180  21.570  1.00  0.00    -0.207 OA
BRANCH   3   6
ATOM      6  C   UNL     1      50.539  56.130  20.650  1.00  0.00    +0.082 A 
ATOM      7  C   UNL     1      48.087  57.466  20.705  1.00  0.00    -0.051 A 
ATOM      8  C   UNL     1      48.276  56.372  19.850  1.00  0.00    +0.005 A 
ATOM      9  C   UNL     1      49.143  57.892  21.522  1.00  0.00    +0.005 A 
ATOM     10  C   UNL     1      49.497  55.696  19.826  1.00  0.00    +0.022 A 
ATOM     11  C   UNL     1      50.367  57.221  21.504  1.00  0.00    +0.022 A 
ATOM     12  C   UNL     1      46.781  58.207  20.706  1.00  0.00    +0.044 C 
ENDBRANCH   3   6
ENDBRANCH   1   3
BRANCH   1  13
ATOM     13  C   UNL     1      52.753  53.318  18.932  1.00  0.00    +0.219 C 
BRANCH  13  14
ATOM     14  N   UNL     1      51.955  52.449  18.118  1.00  0.00    -0.324 N 
ATOM     15  C   UNL     1      50.809  51.876  18.630  1.00  0.00    +0.320 C 
ATOM     16  O   UNL     1      50.454  52.054  19.788  1.00  0.00    -0.248 OA
ATOM     17  N   UNL     1      50.181  51.112  17.671  1.00  0.00    -0.308 N 
ATOM     18  H   UNL     1      51.919  52.700  17.144  1.00  0.00    +0.166 HD
ATOM     19  H   UNL     1      50.743  50.913  16.860  1.00  0.00    +0.171 HD
BRANCH  17  20
ATOM     20  C   UNL     1      48.944  50.434  17.769  1.00  0.00    +0.045 A 
ATOM     21  C   UNL     1      48.797  49.250  18.500  1.00  0.00    +0.026 A 
ATOM     22  C   UNL     1      47.812  50.982  17.123  1.00  0.00    -0.027 A 
ATOM     23  C   UNL     1      47.560  48.606  18.588  1.00  0.00    +0.002 A 
ATOM     24  C   UNL     1      46.574  50.322  17.221  1.00  0.00    +0.005 A 
ATOM     25  C   UNL     1      46.449  49.140  17.948  1.00  0.00    +0.000 A 
ATOM     26  C   UNL     1      47.878  52.256  16.323  1.00  0.00    +0.046 C 
ENDBRANCH  17  20
ENDBRANCH  13  14
ENDBRANCH   1  13
TORSDOF 5
ENDMDL
MODEL 2
REMARK VINA RESULT:    -9.186      1.996      7.309
REMARK INTER + INTRA:         -12.845
REMARK INTER:                 -11.915
REMARK INTRA:                  -0.930
REMARK UNBOUND:                -0.974
REMARK SMILES Cc1ccc(S(=O)(=O)NCNC(=O)Nc2ccccc2C)cc1
REMARK SMILES IDX 9 1 6 3 7 4 8 5 5 6 2 7 3 8 23 9 4 10 22 11 1 12 10 13 11 14
REMARK SMILES IDX 12 15 13 16 14 17 15 20 16 21 20 22 17 23 19 24 18 25 21 26
REMARK H PARENT 9 2 11 18 14 19
ROOT
ATOM      1  N   UNL     1      50.283  51.113  18.529  1.00  0.00    -0.193 NA
ATOM      2  H   UNL     1      49.704  51.322  19.343  1.00  0.00    +0.143 HD
ENDROOT
BRANCH   1   3
ATOM      3  S   UNL     1      49.368  51.059  17.124  1.00  0.00    +0.242 S 
ATOM      4  O   UNL     1      50.132  50.366  16.110  1.00  0.00    -0.207 OA
ATOM      5  O   UNL     1      48.849  52.393  16.915  1.00  0.00    -0.207 OA
BRANCH   3   6
ATOM      6  C   UNL     1      48.012  50.032  17.625  1.00  0.00    +0.082 A 
ATOM      7  C   UNL     1      45.885  48.419  18.447  1.00  0.00    -0.051 A 
ATOM      8  C   UNL     1      47.152  48.264  19.023  1.00  0.00    +0.005 A 
ATOM      9  C   UNL     1      45.697  49.382  17.445  1.00  0.00    +0.005 A 
ATOM     10  C   UNL     1      48.216  49.074  18.622  1.00  0.00    +0.022 A 
ATOM     11  C   UNL     1      46.756  50.196  17.039  1.00  0.00    +0.022 A 
ATOM     12  C   UNL     1      44.751  47.527  18.863  1.00  0.00    +0.044 C 
ENDBRANCH   3   6
ENDBRANCH   1   3
BRANCH   1  13
ATOM     13  C   UNL     1      51.522  51.852  18.464  1.00  0.00    +0.219 C 
BRANCH  13  14
ATOM     14  N   UNL     1      51.207  53.249  18.393  1.00  0.00    -0.324 N 
ATOM     15  C   UNL     1      50.517  53.858  19.421  1.00  0.00    +0.320 C 
ATOM     16  O   UNL     1      50.124  53.237  20.399  1.00  0.00    -0.248 OA
ATOM     17  N   UNL     1      50.355  55.202  19.163  1.00  0.00    -0.308 N 
ATOM     18  H   UNL     1      51.904  53.815  17.939  1.00  0.00    +0.166 HD
ATOM     19  H   UNL     1      50.549  55.473  18.213  1.00  0.00    +0.171 HD
BRANCH  17  20
ATOM     20  C   UNL     1      49.782  56.187  20.000  1.00  0.00    +0.045 A 
ATOM     21  C   UNL     1      48.441  56.572  19.892  1.00  0.00    +0.026 A 
ATOM     22  C   UNL     1      50.586  56.790  20.995  1.00  0.00    -0.027 A 
ATOM     23  C   UNL     1      47.898  57.541  20.739  1.00  0.00    +0.002 A 
ATOM     24  C   UNL     1      50.025  57.764  21.840  1.00  0.00    +0.005 A 
ATOM     25  C   UNL     1      48.690  58.138  21.712  1.00  0.00    +0.000 A 
ATOM     26  C   UNL     1      52.035  56.431  21.187  1.00  0.00    +0.046 C 
ENDBRANCH  17  20
ENDBRANCH  13  14
ENDBRANCH   1  13
TORSDOF 5
ENDMDL
MODEL 3
REMARK VINA RESULT:    -9.081      1.515      2.099
REMARK INTER + INTRA:         -12.710
REMARK INTER:                 -11.878
REMARK INTRA:                  -0.832
REMARK UNBOUND:                -0.974
REMARK SMILES Cc1ccc(S(=O)(=O)NCNC(=O)Nc2ccccc2C)cc1
REMARK SMILES IDX 9 1 6 3 7 4 8 5 5 6 2 7 3 8 23 9 4 10 22 11 1 12 10 13 11 14
REMARK SMILES IDX 12 15 13 16 14 17 15 20 16 21 20 22 17 23 19 24 18 25 21 26
REMARK H PARENT 9 2 11 18 14 19
ROOT
ATOM      1  N   UNL     1      52.217  53.816  19.754  1.00  0.00    -0.193 NA
ATOM      2  H   UNL     1      51.970  54.625  19.184  1.00  0.00    +0.143 HD
ENDROOT
BRANCH   1   3
ATOM      3  S   UNL     1      51.239  53.702  21.112  1.00  0.00    +0.242 S 
ATOM      4  O   UNL     1      52.053  53.954  22.280  1.00  0.00    -0.207 OA
ATOM      5  O   UNL     1      50.463  52.490  20.965  1.00  0.00    -0.207 OA
BRANCH   3   6
ATOM      6  C   UNL     1      50.139  55.072  20.871  1.00  0.00    +0.082 A 
ATOM      7  C   UNL     1      48.434  57.251  20.488  1.00  0.00    -0.051 A 
ATOM      8  C   UNL     1      49.509  57.344  21.382  1.00  0.00    +0.005 A 
ATOM      9  C   UNL     1      48.214  56.050  19.798  1.00  0.00    +0.005 A 
ATOM     10  C   UNL     1      50.369  56.261  21.569  1.00  0.00    +0.022 A 
ATOM     11  C   UNL     1      49.070  54.963  19.980  1.00  0.00    +0.022 A 
ATOM     12  C   UNL     1      47.495  58.410  20.311  1.00  0.00    +0.044 C 
ENDBRANCH   3   6
ENDBRANCH   1   3
BRANCH   1  13
ATOM     13  C   UNL     1      52.433  52.596  19.011  1.00  0.00    +0.219 C 
BRANCH  13  14
ATOM     14  N   UNL     1      51.417  52.500  18.004  1.00  0.00    -0.324 N 
ATOM     15  C   UNL     1      50.669  51.347  17.880  1.00  0.00    +0.320 C 
ATOM     16  O   UNL     1      50.863  50.367  18.585  1.00  0.00    -0.248 OA
ATOM     17  N   UNL     1      49.732  51.485  16.879  1.00  0.00    -0.308 N 
ATOM     18  H   UNL     1      50.928  53.360  17.816  1.00  0.00    +0.166 HD
ATOM     19  H   UNL     1      49.880  52.275  16.272  1.00  0.00    +0.171 HD
BRANCH  17  20
ATOM     20  C   UNL     1      48.724  50.570  16.497  1.00  0.00    +0.045 A 
ATOM     21  C   UNL     1      47.493  50.495  17.159  1.00  0.00    +0.026 A 
ATOM     22  C   UNL     1      48.958  49.717  15.393  1.00  0.00    -0.027 A 
ATOM     23  C   UNL     1      46.511  49.588  16.754  1.00  0.00    +0.002 A 
ATOM     24  C   UNL     1      47.958  48.810  14.998  1.00  0.00    +0.005 A 
ATOM     25  C   UNL     1      46.743  48.745  15.675  1.00  0.00    +0.000 A 
ATOM     26  C   UNL     1      50.248  49.737  14.618  1.00  0.00    +0.046 C 
ENDBRANCH  17  20
ENDBRANCH  13  14
ENDBRANCH   1  13
TORSDOF 5
ENDMDL
MODEL 4
REMARK VINA RESULT:    -8.655      1.776      2.374
REMARK INTER + INTRA:         -12.158
REMARK INTER:                 -11.484
REMARK INTRA:                  -0.675
REMARK UNBOUND:                -0.974
REMARK SMILES Cc1ccc(S(=O)(=O)NCNC(=O)Nc2ccccc2C)cc1
REMARK SMILES IDX 9 1 6 3 7 4 8 5 5 6 2 7 3 8 23 9 4 10 22 11 1 12 10 13 11 14
REMARK SMILES IDX 12 15 13 16 14 17 15 20 16 21 20 22 17 23 19 24 18 25 21 26
REMARK H PARENT 9 2 11 18 14 19
ROOT
ATOM      1  N   UNL     1      50.672  52.077  19.473  1.00  0.00    -0.193 NA
ATOM      2  H   UNL     1      50.178  51.513  20.166  1.00  0.00    +0.143 HD
ENDROOT
BRANCH   1   3
ATOM      3  S   UNL     1      51.694  53.189  20.203  1.00  0.00    +0.242 S 
ATOM      4  O   UNL     1      52.726  53.547  19.256  1.00  0.00    -0.207 OA
ATOM      5  O   UNL     1      52.004  52.667  21.516  1.00  0.00    -0.207 OA
BRANCH   3   6
ATOM      6  C   UNL     1      50.608  54.574  20.423  1.00  0.00    +0.082 A 
ATOM      7  C   UNL     1      48.872  56.734  20.773  1.00  0.00    -0.051 A 
ATOM      8  C   UNL     1      48.520  55.675  19.926  1.00  0.00    +0.005 A 
ATOM      9  C   UNL     1      50.110  56.707  21.432  1.00  0.00    +0.005 A 
ATOM     10  C   UNL     1      49.380  54.589  19.756  1.00  0.00    +0.022 A 
ATOM     11  C   UNL     1      50.975  55.624  21.266  1.00  0.00    +0.022 A 
ATOM     12  C   UNL     1      47.956  57.913  20.931  1.00  0.00    +0.044 C 
ENDBRANCH   3   6
ENDBRANCH   1   3
BRANCH   1  13
ATOM     13  C   UNL     1      51.219  51.329  18.365  1.00  0.00    +0.219 C 
BRANCH  13  14
ATOM     14  N   UNL     1      50.452  50.127  18.214  1.00  0.00    -0.324 N 
ATOM     15  C   UNL     1      49.096  50.195  17.969  1.00  0.00    +0.320 C 
ATOM     16  O   UNL     1      48.498  51.260  17.907  1.00  0.00    -0.248 OA
ATOM     17  N   UNL     1      48.568  48.930  17.823  1.00  0.00    -0.308 N 
ATOM     18  H   UNL     1      50.940  49.371  17.764  1.00  0.00    +0.166 HD
ATOM     19  H   UNL     1      49.173  48.186  18.129  1.00  0.00    +0.171 HD
BRANCH  17  20
ATOM     20  C   UNL     1      47.244  48.573  17.481  1.00  0.00    +0.045 A 
ATOM     21  C   UNL     1      46.269  48.302  18.448  1.00  0.00    +0.026 A 
ATOM     22  C   UNL     1      46.885  48.508  16.115  1.00  0.00    -0.027 A 
ATOM     23  C   UNL     1      44.965  47.960  18.082  1.00  0.00    +0.002 A 
ATOM     24  C   UNL     1      45.568  48.162  15.763  1.00  0.00    +0.005 A 
ATOM     25  C   UNL     1      44.615  47.889  16.740  1.00  0.00    +0.000 A 
ATOM     26  C   UNL     1      47.867  48.791  15.009  1.00  0.00    +0.046 C 
ENDBRANCH  17  20
ENDBRANCH  13  14
ENDBRANCH   1  13
TORSDOF 5
ENDMDL
MODEL 5
REMARK VINA RESULT:    -8.115      2.990      8.367
REMARK INTER + INTRA:         -11.461
REMARK INTER:                 -11.111
REMARK INTRA:                  -0.350
REMARK UNBOUND:                -0.974
REMARK SMILES Cc1ccc(S(=O)(=O)NCNC(=O)Nc2ccccc2C)cc1
REMARK SMILES IDX 9 1 6 3 7 4 8 5 5 6 2 7 3 8 23 9 4 10 22 11 1 12 10 13 11 14
REMARK SMILES IDX 12 15 13 16 14 17 15 20 16 21 20 22 17 23 19 24 18 25 21 26
REMARK H PARENT 9 2 11 18 14 19
ROOT
ATOM      1  N   UNL     1      47.601  51.529  16.886  1.00  0.00    -0.193 NA
ATOM      2  H   UNL     1      46.813  51.584  16.240  1.00  0.00    +0.143 HD
ENDROOT
BRANCH   1   3
ATOM      3  S   UNL     1      48.199  49.965  16.990  1.00  0.00    +0.242 S 
ATOM      4  O   UNL     1      48.412  49.652  18.385  1.00  0.00    -0.207 OA
ATOM      5  O   UNL     1      49.257  49.859  16.010  1.00  0.00    -0.207 OA
BRANCH   3   6
ATOM      6  C   UNL     1      46.822  49.020  16.391  1.00  0.00    +0.082 A 
ATOM      7  C   UNL     1      44.675  47.510  15.437  1.00  0.00    -0.051 A 
ATOM      8  C   UNL     1      45.794  47.738  14.625  1.00  0.00    +0.005 A 
ATOM      9  C   UNL     1      44.637  48.058  16.728  1.00  0.00    +0.005 A 
ATOM     10  C   UNL     1      46.872  48.485  15.101  1.00  0.00    +0.022 A 
ATOM     11  C   UNL     1      45.712  48.805  17.211  1.00  0.00    +0.022 A 
ATOM     12  C   UNL     1      43.505  46.730  14.910  1.00  0.00    +0.044 C 
ENDBRANCH   3   6
ENDBRANCH   1   3
BRANCH   1  13
ATOM     13  C   UNL     1      48.576  52.584  16.740  1.00  0.00    +0.219 C 
BRANCH  13  14
ATOM     14  N   UNL     1      48.927  53.053  18.048  1.00  0.00    -0.324 N 
ATOM     15  C   UNL     1      48.841  54.397  18.350  1.00  0.00    +0.320 C 
ATOM     16  O   UNL     1      48.503  55.230  17.520  1.00  0.00    -0.248 OA
ATOM     17  N   UNL     1      49.189  54.619  19.664  1.00  0.00    -0.308 N 
ATOM     18  H   UNL     1      48.697  52.422  18.797  1.00  0.00    +0.166 HD
ATOM     19  H   UNL     1      49.649  53.844  20.113  1.00  0.00    +0.171 HD
BRANCH  17  20
ATOM     20  C   UNL     1      49.150  55.837  20.382  1.00  0.00    +0.045 A 
ATOM     21  C   UNL     1      48.064  56.716  20.303  1.00  0.00    +0.026 A 
ATOM     22  C   UNL     1      50.235  56.167  21.227  1.00  0.00    -0.027 A 
ATOM     23  C   UNL     1      48.047  57.908  21.031  1.00  0.00    +0.002 A 
ATOM     24  C   UNL     1      50.202  57.371  21.953  1.00  0.00    +0.005 A 
ATOM     25  C   UNL     1      49.116  58.236  21.855  1.00  0.00    +0.000 A 
ATOM     26  C   UNL     1      51.439  55.276  21.378  1.00  0.00    +0.046 C 
ENDBRANCH  17  20
ENDBRANCH  13  14
ENDBRANCH   1  13
TORSDOF 5
ENDMDL
