MODEL 1
REMARK VINA RESULT:    -7.788      0.000      0.000
REMARK INTER + INTRA:          -9.001
REMARK INTER:                  -8.699
REMARK INTRA:                  -0.302
REMARK UNBOUND:                -0.302
REMARK SMILES O=C(N/N=C1\NC=NC2=NC=N[C@H]21)[C@@H]1CCC[NH2+]C1
REMARK SMILES IDX 2 1 1 2 3 3 14 5 16 6 15 7 17 8 18 9 19 10 4 13 5 14 13 15
REMARK SMILES IDX 6 16 9 17 12 18 7 19 10 20 8 21 11 22
REMARK H PARENT 3 4 18 11 18 12 6 23
ROOT
ATOM      1  C   UNL     1      50.869  52.504  18.706  1.00  0.00    +0.248 C 
ATOM      2  O   UNL     1      49.787  52.921  19.113  1.00  0.00    -0.273 OA
ATOM      3  N   UNL     1      52.084  53.157  18.853  1.00  0.00    -0.245 N 
ATOM      4  H   UNL     1      52.914  52.819  18.374  1.00  0.00    +0.193 HD
ENDROOT
BRANCH   1   5
ATOM      5  C   UNL     1      50.947  51.197  17.928  1.00  0.00    +0.135 C 
ATOM      6  C   UNL     1      50.947  49.712  20.004  1.00  0.00    +0.062 C 
ATOM      7  C   UNL     1      50.241  50.071  18.689  1.00  0.00    +0.025 C 
ATOM      8  C   UNL     1      52.456  49.929  19.989  1.00  0.00    +0.260 C 
ATOM      9  N   UNL     1      52.960  49.816  18.591  1.00  0.00    -0.346 N 
ATOM     10  C   UNL     1      52.413  50.842  17.637  1.00  0.00    +0.274 C 
ATOM     11  H   UNL     1      53.986  49.913  18.612  1.00  0.00    +0.346 HD
ATOM     12  H   UNL     1      52.781  48.866  18.240  1.00  0.00    +0.346 HD
ENDBRANCH   1   5
BRANCH   3  13
ATOM     13  N   UNL     1      52.036  54.501  19.093  1.00  0.00    -0.157 NA
ATOM     14  C   UNL     1      51.965  54.896  20.329  1.00  0.00    +0.160 C 
ATOM     15  C   UNL     1      52.064  56.381  20.655  1.00  0.00    +0.243 C 
ATOM     16  N   UNL     1      51.713  54.112  21.442  1.00  0.00    -0.331 N 
ATOM     17  C   UNL     1      52.503  56.531  22.078  1.00  0.00    +0.164 C 
ATOM     18  N   UNL     1      53.163  57.085  19.953  1.00  0.00    -0.254 NA
ATOM     19  C   UNL     1      51.615  54.607  22.719  1.00  0.00    +0.200 C 
ATOM     20  N   UNL     1      53.514  57.311  22.212  1.00  0.00    -0.219 NA
ATOM     21  N   UNL     1      51.956  55.797  23.094  1.00  0.00    -0.221 NA
ATOM     22  C   UNL     1      53.853  57.620  20.918  1.00  0.00    +0.219 C 
ATOM     23  H   UNL     1      51.328  53.195  21.267  1.00  0.00    +0.169 HD
ENDBRANCH   3  13
TORSDOF 2
ENDMDL
MODEL 2
REMARK VINA RESULT:    -7.585      2.234      2.601
REMARK INTER + INTRA:          -8.774
REMARK INTER:                  -8.346
REMARK INTRA:                  -0.428
REMARK UNBOUND:                -0.302
REMARK SMILES O=C(N/N=C1\NC=NC2=NC=N[C@H]21)[C@@H]1CCC[NH2+]C1
REMARK SMILES IDX 2 1 1 2 3 3 14 5 16 6 15 7 17 8 18 9 19 10 4 13 5 14 13 15
REMARK SMILES IDX 6 16 9 17 12 18 7 19 10 20 8 21 11 22
REMARK H PARENT 3 4 18 11 18 12 6 23
ROOT
ATOM      1  C   UNL     1      48.622  52.407  17.430  1.00  0.00    +0.248 C 
ATOM      2  O   UNL     1      47.583  53.062  17.378  1.00  0.00    -0.273 OA
ATOM      3  N   UNL     1      49.670  52.639  18.309  1.00  0.00    -0.245 N 
ATOM      4  H   UNL     1      50.551  52.144  18.205  1.00  0.00    +0.193 HD
ENDROOT
BRANCH   1   5
ATOM      5  C   UNL     1      48.864  51.269  16.448  1.00  0.00    +0.135 C 
ATOM      6  C   UNL     1      47.319  49.625  17.641  1.00  0.00    +0.062 C 
ATOM      7  C   UNL     1      47.625  50.376  16.338  1.00  0.00    +0.025 C 
ATOM      8  C   UNL     1      48.546  49.296  18.483  1.00  0.00    +0.260 C 
ATOM      9  N   UNL     1      49.741  49.193  17.599  1.00  0.00    -0.346 N 
ATOM     10  C   UNL     1      50.100  50.460  16.871  1.00  0.00    +0.274 C 
ATOM     11  H   UNL     1      50.547  48.919  18.180  1.00  0.00    +0.346 HD
ATOM     12  H   UNL     1      49.607  48.421  16.932  1.00  0.00    +0.346 HD
ENDBRANCH   1   5
BRANCH   3  13
ATOM     13  N   UNL     1      49.743  53.883  18.867  1.00  0.00    -0.157 NA
ATOM     14  C   UNL     1      50.327  54.000  20.021  1.00  0.00    +0.160 C 
ATOM     15  C   UNL     1      50.569  55.385  20.610  1.00  0.00    +0.243 C 
ATOM     16  N   UNL     1      50.704  52.976  20.873  1.00  0.00    -0.331 N 
ATOM     17  C   UNL     1      51.688  55.295  21.600  1.00  0.00    +0.164 C 
ATOM     18  N   UNL     1      51.129  56.363  19.649  1.00  0.00    -0.254 NA
ATOM     19  C   UNL     1      51.286  53.177  22.100  1.00  0.00    +0.200 C 
ATOM     20  N   UNL     1      52.612  56.163  21.393  1.00  0.00    -0.219 NA
ATOM     21  N   UNL     1      51.763  54.299  22.533  1.00  0.00    -0.221 NA
ATOM     22  C   UNL     1      52.218  56.778  20.230  1.00  0.00    +0.219 C 
ATOM     23  H   UNL     1      50.293  52.070  20.694  1.00  0.00    +0.169 HD
ENDBRANCH   3  13
TORSDOF 2
ENDMDL
MODEL 3
REMARK VINA RESULT:    -7.375      3.856      5.836
REMARK INTER + INTRA:          -8.540
REMARK INTER:                  -8.119
REMARK INTRA:                  -0.420
REMARK UNBOUND:                -0.302
REMARK SMILES O=C(N/N=C1\NC=NC2=NC=N[C@H]21)[C@@H]1CCC[NH2+]C1
REMARK SMILES IDX 2 1 1 2 3 3 14 5 16 6 15 7 17 8 18 9 19 10 4 13 5 14 13 15
REMARK SMILES IDX 6 16 9 17 12 18 7 19 10 20 8 21 11 22
REMARK H PARENT 3 4 18 11 18 12 6 23
ROOT
ATOM      1  C   UNL     1      48.188  48.198  17.685  1.00  0.00    +0.248 C 
ATOM      2  O   UNL     1      47.375  48.310  18.601  1.00  0.00    -0.273 OA
ATOM      3  N   UNL     1      49.382  48.898  17.587  1.00  0.00    -0.245 N 
ATOM      4  H   UNL     1      49.938  48.854  16.738  1.00  0.00    +0.193 HD
ENDROOT
BRANCH   1   5
ATOM      5  C   UNL     1      47.901  47.273  16.511  1.00  0.00    +0.135 C 
ATOM      6  C   UNL     1      46.517  48.987  15.222  1.00  0.00    +0.062 C 
ATOM      7  C   UNL     1      47.751  48.074  15.214  1.00  0.00    +0.025 C 
ATOM      8  C   UNL     1      45.350  48.463  16.051  1.00  0.00    +0.260 C 
ATOM      9  N   UNL     1      45.419  46.976  16.120  1.00  0.00    -0.346 N 
ATOM     10  C   UNL     1      46.648  46.431  16.795  1.00  0.00    +0.274 C 
ATOM     11  H   UNL     1      44.594  46.641  16.640  1.00  0.00    +0.346 HD
ATOM     12  H   UNL     1      45.325  46.585  15.173  1.00  0.00    +0.346 HD
ENDBRANCH   1   5
BRANCH   3  13
ATOM     13  N   UNL     1      49.482  50.051  18.310  1.00  0.00    -0.157 NA
ATOM     14  C   UNL     1      50.556  50.235  19.018  1.00  0.00    +0.160 C 
ATOM     15  C   UNL     1      50.782  51.570  19.718  1.00  0.00    +0.243 C 
ATOM     16  N   UNL     1      51.535  49.300  19.306  1.00  0.00    -0.331 N 
ATOM     17  C   UNL     1      52.247  51.733  19.976  1.00  0.00    +0.164 C 
ATOM     18  N   UNL     1      50.519  52.753  18.867  1.00  0.00    -0.254 NA
ATOM     19  C   UNL     1      52.630  49.556  20.096  1.00  0.00    +0.200 C 
ATOM     20  N   UNL     1      52.710  52.854  19.552  1.00  0.00    -0.219 NA
ATOM     21  N   UNL     1      53.017  50.726  20.488  1.00  0.00    -0.221 NA
ATOM     22  C   UNL     1      51.635  53.423  18.916  1.00  0.00    +0.219 C 
ATOM     23  H   UNL     1      51.293  48.333  19.146  1.00  0.00    +0.169 HD
ENDBRANCH   3  13
TORSDOF 2
ENDMDL
MODEL 4
REMARK VINA RESULT:    -7.142      4.376      6.490
REMARK INTER + INTRA:          -8.279
REMARK INTER:                  -7.726
REMARK INTRA:                  -0.554
REMARK UNBOUND:                -0.302
REMARK SMILES O=C(N/N=C1\NC=NC2=NC=N[C@H]21)[C@@H]1CCC[NH2+]C1
REMARK SMILES IDX 2 1 1 2 3 3 14 5 16 6 15 7 17 8 18 9 19 10 4 13 5 14 13 15
REMARK SMILES IDX 6 16 9 17 12 18 7 19 10 20 8 21 11 22
REMARK H PARENT 3 4 18 11 18 12 6 23
ROOT
ATOM      1  C   UNL     1      48.112  47.924  16.220  1.00  0.00    +0.248 C 
ATOM      2  O   UNL     1      48.688  47.207  17.035  1.00  0.00    -0.273 OA
ATOM      3  N   UNL     1      48.643  49.072  15.651  1.00  0.00    -0.245 N 
ATOM      4  H   UNL     1      48.061  49.687  15.090  1.00  0.00    +0.193 HD
ENDROOT
BRANCH   1   5
ATOM      5  C   UNL     1      46.684  47.612  15.795  1.00  0.00    +0.135 C 
ATOM      6  C   UNL     1      45.603  49.040  17.613  1.00  0.00    +0.062 C 
ATOM      7  C   UNL     1      45.757  48.790  16.106  1.00  0.00    +0.025 C 
ATOM      8  C   UNL     1      45.727  47.790  18.476  1.00  0.00    +0.260 C 
ATOM      9  N   UNL     1      45.333  46.595  17.677  1.00  0.00    -0.346 N 
ATOM     10  C   UNL     1      46.199  46.324  16.477  1.00  0.00    +0.274 C 
ATOM     11  H   UNL     1      45.374  45.770  18.294  1.00  0.00    +0.346 HD
ATOM     12  H   UNL     1      44.347  46.681  17.398  1.00  0.00    +0.346 HD
ENDBRANCH   1   5
BRANCH   3  13
ATOM     13  N   UNL     1      49.678  49.667  16.314  1.00  0.00    -0.157 NA
ATOM     14  C   UNL     1      49.513  50.885  16.734  1.00  0.00    +0.160 C 
ATOM     15  C   UNL     1      50.578  51.535  17.609  1.00  0.00    +0.243 C 
ATOM     16  N   UNL     1      48.482  51.748  16.405  1.00  0.00    -0.331 N 
ATOM     17  C   UNL     1      49.946  52.648  18.386  1.00  0.00    +0.164 C 
ATOM     18  N   UNL     1      51.066  50.673  18.711  1.00  0.00    -0.254 NA
ATOM     19  C   UNL     1      48.391  53.041  16.860  1.00  0.00    +0.200 C 
ATOM     20  N   UNL     1      50.178  52.574  19.647  1.00  0.00    -0.219 NA
ATOM     21  N   UNL     1      49.103  53.556  17.809  1.00  0.00    -0.221 NA
ATOM     22  C   UNL     1      50.860  51.390  19.778  1.00  0.00    +0.219 C 
ATOM     23  H   UNL     1      47.928  51.498  15.598  1.00  0.00    +0.169 HD
ENDBRANCH   3  13
TORSDOF 2
ENDMDL
MODEL 5
REMARK VINA RESULT:    -6.999      3.412      4.844
REMARK INTER + INTRA:          -8.119
REMARK INTER:                  -7.686
REMARK INTRA:                  -0.433
REMARK UNBOUND:                -0.302
REMARK SMILES O=C(N/N=C1\NC=NC2=NC=N[C@H]21)[C@@H]1CCC[NH2+]C1
REMARK SMILES IDX 2 1 1 2 3 3 14 5 16 6 15 7 17 8 18 9 19 10 4 13 5 14 13 15
REMARK SMILES IDX 6 16 9 17 12 18 7 19 10 20 8 21 11 22
REMARK H PARENT 3 4 18 11 18 12 6 23
ROOT
ATOM      1  C   UNL     1      49.020  49.347  17.357  1.00  0.00    +0.248 C 
ATOM      2  O   UNL     1      48.999  48.895  18.500  1.00  0.00    -0.273 OA
ATOM      3  N   UNL     1      49.354  50.650  17.019  1.00  0.00    -0.245 N 
ATOM      4  H   UNL     1      49.219  50.989  16.071  1.00  0.00    +0.193 HD
ENDROOT
BRANCH   1   5
ATOM      5  C   UNL     1      48.614  48.474  16.177  1.00  0.00    +0.135 C 
ATOM      6  C   UNL     1      46.117  48.954  16.407  1.00  0.00    +0.062 C 
ATOM      7  C   UNL     1      47.356  49.028  15.502  1.00  0.00    +0.025 C 
ATOM      8  C   UNL     1      46.126  47.792  17.394  1.00  0.00    +0.260 C 
ATOM      9  N   UNL     1      46.957  46.683  16.848  1.00  0.00    -0.346 N 
ATOM     10  C   UNL     1      48.407  47.024  16.640  1.00  0.00    +0.274 C 
ATOM     11  H   UNL     1      46.905  45.891  17.505  1.00  0.00    +0.346 HD
ATOM     12  H   UNL     1      46.538  46.342  15.972  1.00  0.00    +0.346 HD
ENDBRANCH   1   5
BRANCH   3  13
ATOM     13  N   UNL     1      49.260  51.587  18.009  1.00  0.00    -0.157 NA
ATOM     14  C   UNL     1      50.335  52.240  18.332  1.00  0.00    +0.160 C 
ATOM     15  C   UNL     1      50.248  53.398  19.320  1.00  0.00    +0.243 C 
ATOM     16  N   UNL     1      51.633  51.955  17.945  1.00  0.00    -0.331 N 
ATOM     17  C   UNL     1      51.428  54.295  19.110  1.00  0.00    +0.164 C 
ATOM     18  N   UNL     1      49.135  54.339  19.055  1.00  0.00    -0.254 NA
ATOM     19  C   UNL     1      52.730  52.671  18.358  1.00  0.00    +0.200 C 
ATOM     20  N   UNL     1      51.099  55.528  18.956  1.00  0.00    -0.219 NA
ATOM     21  N   UNL     1      52.698  53.813  18.964  1.00  0.00    -0.221 NA
ATOM     22  C   UNL     1      49.727  55.494  18.947  1.00  0.00    +0.219 C 
ATOM     23  H   UNL     1      51.794  51.035  17.561  1.00  0.00    +0.169 HD
ENDBRANCH   3  13
TORSDOF 2
ENDMDL
