MODEL 1
REMARK VINA RESULT:   -10.682      0.000      0.000
REMARK INTER + INTRA:         -15.604
REMARK INTER:                 -15.053
REMARK INTRA:                  -0.550
REMARK UNBOUND:                -0.550
REMARK SMILES Cc1ccc(C(=O)N2C[C@@H](C(=O)NC[C@@H](C)Oc3ccc(F)cc3)C3(CC[NH2+]CC3)C2)c(F)c1F
REMARK SMILES IDX 11 1 12 2 13 3 10 5 8 6 9 7 31 8 25 9 26 10 30 11 27 12
REMARK SMILES IDX 29 13 28 14 6 17 7 18 5 19 2 20 3 21 34 22 4 23 32 24 1 25
REMARK SMILES IDX 35 26 33 27 14 28 15 29 16 30 17 31 18 32 19 33 24 34 20 35
REMARK SMILES IDX 23 36 21 37 22 38
REMARK H PARENT 13 4 28 15 28 16
ROOT
ATOM      1  C   UNL     1      49.691  52.500  18.234  1.00  0.00    +0.225 C 
ATOM      2  O   UNL     1      49.244  53.617  17.976  1.00  0.00    -0.275 OA
ATOM      3  N   UNL     1      49.376  51.385  17.504  1.00  0.00    -0.352 N 
ATOM      4  H   UNL     1      49.836  50.500  17.698  1.00  0.00    +0.163 HD
ENDROOT
BRANCH   1   5
ATOM      5  C   UNL     1      50.502  52.299  19.509  1.00  0.00    +0.106 C 
ATOM      6  N   UNL     1      51.264  54.374  20.308  1.00  0.00    -0.337 N 
ATOM      7  C   UNL     1      50.233  53.380  20.549  1.00  0.00    +0.134 C 
ATOM      8  C   UNL     1      52.334  53.868  19.456  1.00  0.00    +0.128 C 
ATOM      9  C   UNL     1      52.045  52.358  19.291  1.00  0.00    +0.012 C 
ATOM     10  C   UNL     1      52.533  51.846  17.917  1.00  0.00    +0.071 C 
ATOM     11  C   UNL     1      52.790  51.551  20.393  1.00  0.00    +0.071 C 
ATOM     12  C   UNL     1      52.366  50.341  17.751  1.00  0.00    +0.261 C 
ATOM     13  C   UNL     1      52.661  50.040  20.222  1.00  0.00    +0.261 C 
ATOM     14  N   UNL     1      53.102  49.652  18.852  1.00  0.00    -0.346 N 
ATOM     15  H   UNL     1      52.978  48.635  18.738  1.00  0.00    +0.346 HD
ATOM     16  H   UNL     1      54.113  49.814  18.748  1.00  0.00    +0.346 HD
BRANCH   6  17
ATOM     17  C   UNL     1      51.223  55.580  20.988  1.00  0.00    +0.256 C 
ATOM     18  O   UNL     1      52.068  55.889  21.823  1.00  0.00    -0.269 OA
BRANCH  17  19
ATOM     19  C   UNL     1      50.148  56.540  20.694  1.00  0.00    +0.078 A 
ATOM     20  C   UNL     1      48.047  58.325  20.183  1.00  0.00    -0.012 A 
ATOM     21  C   UNL     1      48.500  58.123  21.495  1.00  0.00    +0.007 A 
ATOM     22  C   UNL     1      48.637  57.594  19.146  1.00  0.00    +0.162 A 
ATOM     23  C   UNL     1      49.546  57.232  21.752  1.00  0.00    +0.017 A 
ATOM     24  C   UNL     1      49.674  56.702  19.397  1.00  0.00    +0.171 A 
ATOM     25  C   UNL     1      46.905  59.252  19.897  1.00  0.00    +0.047 C 
ATOM     26  F   UNL     1      48.201  57.754  17.889  1.00  0.00    -0.203 F 
ATOM     27  F   UNL     1      50.201  55.998  18.381  1.00  0.00    -0.203 F 
ENDBRANCH  17  19
ENDBRANCH   6  17
ENDBRANCH   1   5
BRANCH   3  28
ATOM     28  C   UNL     1      48.604  51.466  16.273  1.00  0.00    +0.160 C 
BRANCH  28  29
ATOM     29  C   UNL     1      48.671  50.188  15.415  1.00  0.00    +0.189 C 
ATOM     30  C   UNL     1      50.027  50.085  14.712  1.00  0.00    +0.055 C 
BRANCH  29  31
ATOM     31  O   UNL     1      48.568  49.036  16.261  1.00  0.00    -0.489 OA
BRANCH  31  32
ATOM     32  C   UNL     1      47.353  48.709  16.794  1.00  0.00    +0.120 A 
ATOM     33  C   UNL     1      46.136  48.645  16.110  1.00  0.00    +0.049 A 
ATOM     34  C   UNL     1      47.382  48.433  18.166  1.00  0.00    +0.049 A 
ATOM     35  C   UNL     1      44.966  48.299  16.792  1.00  0.00    +0.043 A 
ATOM     36  C   UNL     1      46.215  48.088  18.849  1.00  0.00    +0.043 A 
ATOM     37  C   UNL     1      45.015  48.024  18.154  1.00  0.00    +0.123 A 
ATOM     38  F   UNL     1      43.890  47.697  18.801  1.00  0.00    -0.207 F 
ENDBRANCH  31  32
ENDBRANCH  29  31
ENDBRANCH  28  29
ENDBRANCH   3  28
TORSDOF 7
ENDMDL
MODEL 2
REMARK VINA RESULT:   -10.005      2.632      6.504
REMARK INTER + INTRA:         -14.649
REMARK INTER:                 -13.338
REMARK INTRA:                  -1.311
REMARK UNBOUND:                -0.550
REMARK SMILES Cc1ccc(C(=O)N2C[C@@H](C(=O)NC[C@@H](C)Oc3ccc(F)cc3)C3(CC[NH2+]CC3)C2)c(F)c1F
REMARK SMILES IDX 11 1 12 2 13 3 10 5 8 6 9 7 31 8 25 9 26 10 30 11 27 12
REMARK SMILES IDX 29 13 28 14 6 17 7 18 5 19 2 20 3 21 34 22 4 23 32 24 1 25
REMARK SMILES IDX 35 26 33 27 14 28 15 29 16 30 17 31 18 32 19 33 24 34 20 35
REMARK SMILES IDX 23 36 21 37 22 38
REMARK H PARENT 13 4 28 15 28 16
ROOT
ATOM      1  C   UNL     1      49.690  50.085  18.460  1.00  0.00    +0.225 C 
ATOM      2  O   UNL     1      49.759  48.950  18.929  1.00  0.00    -0.275 OA
ATOM      3  N   UNL     1      49.974  51.210  19.188  1.00  0.00    -0.352 N 
ATOM      4  H   UNL     1      49.989  52.121  18.736  1.00  0.00    +0.163 HD
ENDROOT
BRANCH   1   5
ATOM      5  C   UNL     1      49.113  50.279  17.062  1.00  0.00    +0.106 C 
ATOM      6  N   UNL     1      48.154  52.417  16.882  1.00  0.00    -0.337 N 
ATOM      7  C   UNL     1      49.353  51.682  16.520  1.00  0.00    +0.134 C 
ATOM      8  C   UNL     1      47.066  51.536  17.292  1.00  0.00    +0.128 C 
ATOM      9  C   UNL     1      47.565  50.104  16.989  1.00  0.00    +0.012 C 
ATOM     10  C   UNL     1      46.971  49.086  17.990  1.00  0.00    +0.071 C 
ATOM     11  C   UNL     1      47.124  49.680  15.559  1.00  0.00    +0.071 C 
ATOM     12  C   UNL     1      47.350  47.647  17.666  1.00  0.00    +0.261 C 
ATOM     13  C   UNL     1      47.465  48.228  15.230  1.00  0.00    +0.261 C 
ATOM     14  N   UNL     1      46.899  47.332  16.278  1.00  0.00    -0.346 N 
ATOM     15  H   UNL     1      47.164  46.359  16.064  1.00  0.00    +0.346 HD
ATOM     16  H   UNL     1      45.870  47.346  16.236  1.00  0.00    +0.346 HD
BRANCH   6  17
ATOM     17  C   UNL     1      48.101  53.785  16.670  1.00  0.00    +0.256 C 
ATOM     18  O   UNL     1      47.862  54.267  15.567  1.00  0.00    -0.269 OA
BRANCH  17  19
ATOM     19  C   UNL     1      48.314  54.701  17.801  1.00  0.00    +0.078 A 
ATOM     20  C   UNL     1      48.652  56.413  19.995  1.00  0.00    -0.012 A 
ATOM     21  C   UNL     1      48.706  55.023  20.169  1.00  0.00    +0.007 A 
ATOM     22  C   UNL     1      48.389  56.924  18.719  1.00  0.00    +0.162 A 
ATOM     23  C   UNL     1      48.536  54.167  19.076  1.00  0.00    +0.017 A 
ATOM     24  C   UNL     1      48.214  56.077  17.630  1.00  0.00    +0.171 A 
ATOM     25  C   UNL     1      48.800  57.341  21.163  1.00  0.00    +0.047 C 
ATOM     26  F   UNL     1      48.308  58.250  18.538  1.00  0.00    -0.203 F 
ATOM     27  F   UNL     1      47.939  56.601  16.424  1.00  0.00    -0.203 F 
ENDBRANCH  17  19
ENDBRANCH   6  17
ENDBRANCH   1   5
BRANCH   3  28
ATOM     28  C   UNL     1      50.526  51.136  20.532  1.00  0.00    +0.160 C 
BRANCH  28  29
ATOM     29  C   UNL     1      52.004  51.560  20.618  1.00  0.00    +0.189 C 
ATOM     30  C   UNL     1      52.900  50.520  19.941  1.00  0.00    +0.055 C 
BRANCH  29  31
ATOM     31  O   UNL     1      52.196  52.785  19.900  1.00  0.00    -0.489 OA
BRANCH  31  32
ATOM     32  C   UNL     1      52.127  53.970  20.577  1.00  0.00    +0.120 A 
ATOM     33  C   UNL     1      51.750  54.145  21.911  1.00  0.00    +0.049 A 
ATOM     34  C   UNL     1      52.463  55.091  19.808  1.00  0.00    +0.049 A 
ATOM     35  C   UNL     1      51.721  55.426  22.469  1.00  0.00    +0.043 A 
ATOM     36  C   UNL     1      52.434  56.372  20.364  1.00  0.00    +0.043 A 
ATOM     37  C   UNL     1      52.063  56.527  21.692  1.00  0.00    +0.123 A 
ATOM     38  F   UNL     1      52.030  57.751  22.233  1.00  0.00    -0.207 F 
ENDBRANCH  31  32
ENDBRANCH  29  31
ENDBRANCH  28  29
ENDBRANCH   3  28
TORSDOF 7
ENDMDL
MODEL 3
REMARK VINA RESULT:    -9.934      2.998      7.354
REMARK INTER + INTRA:         -14.549
REMARK INTER:                 -12.848
REMARK INTRA:                  -1.701
REMARK UNBOUND:                -0.550
REMARK SMILES Cc1ccc(C(=O)N2C[C@@H](C(=O)NC[C@@H](C)Oc3ccc(F)cc3)C3(CC[NH2+]CC3)C2)c(F)c1F
REMARK SMILES IDX 11 1 12 2 13 3 10 5 8 6 9 7 31 8 25 9 26 10 30 11 27 12
REMARK SMILES IDX 29 13 28 14 6 17 7 18 5 19 2 20 3 21 34 22 4 23 32 24 1 25
REMARK SMILES IDX 35 26 33 27 14 28 15 29 16 30 17 31 18 32 19 33 24 34 20 35
REMARK SMILES IDX 23 36 21 37 22 38
REMARK H PARENT 13 4 28 15 28 16
ROOT
ATOM      1  C   UNL     1      49.410  56.459  19.583  1.00  0.00    +0.225 C 
ATOM      2  O   UNL     1      48.698  55.460  19.489  1.00  0.00    -0.275 OA
ATOM      3  N   UNL     1      48.905  57.727  19.683  1.00  0.00    -0.352 N 
ATOM      4  H   UNL     1      49.527  58.514  19.847  1.00  0.00    +0.163 HD
ENDROOT
BRANCH   1   5
ATOM      5  C   UNL     1      50.920  56.314  19.422  1.00  0.00    +0.106 C 
ATOM      6  N   UNL     1      51.488  54.043  19.220  1.00  0.00    -0.337 N 
ATOM      7  C   UNL     1      51.299  55.236  18.414  1.00  0.00    +0.134 C 
ATOM      8  C   UNL     1      51.592  54.346  20.644  1.00  0.00    +0.128 C 
ATOM      9  C   UNL     1      51.655  55.888  20.729  1.00  0.00    +0.012 C 
ATOM     10  C   UNL     1      51.014  56.398  22.039  1.00  0.00    +0.071 C 
ATOM     11  C   UNL     1      53.137  56.361  20.708  1.00  0.00    +0.071 C 
ATOM     12  C   UNL     1      51.147  57.905  22.217  1.00  0.00    +0.261 C 
ATOM     13  C   UNL     1      53.292  57.865  20.920  1.00  0.00    +0.261 C 
ATOM     14  N   UNL     1      52.595  58.267  22.174  1.00  0.00    -0.346 N 
ATOM     15  H   UNL     1      52.678  59.289  22.288  1.00  0.00    +0.346 HD
ATOM     16  H   UNL     1      53.078  57.865  22.990  1.00  0.00    +0.346 HD
BRANCH   6  17
ATOM     17  C   UNL     1      51.698  52.823  18.598  1.00  0.00    +0.256 C 
ATOM     18  O   UNL     1      52.766  52.534  18.068  1.00  0.00    -0.269 OA
BRANCH  17  19
ATOM     19  C   UNL     1      50.618  51.824  18.583  1.00  0.00    +0.078 A 
ATOM     20  C   UNL     1      48.614  49.865  18.517  1.00  0.00    -0.012 A 
ATOM     21  C   UNL     1      49.808  49.631  19.214  1.00  0.00    +0.007 A 
ATOM     22  C   UNL     1      48.460  51.073  17.829  1.00  0.00    +0.162 A 
ATOM     23  C   UNL     1      50.809  50.606  19.246  1.00  0.00    +0.017 A 
ATOM     24  C   UNL     1      49.455  52.044  17.853  1.00  0.00    +0.171 A 
ATOM     25  C   UNL     1      47.545  48.816  18.447  1.00  0.00    +0.047 C 
ATOM     26  F   UNL     1      47.336  51.305  17.136  1.00  0.00    -0.203 F 
ATOM     27  F   UNL     1      49.285  53.182  17.161  1.00  0.00    -0.203 F 
ENDBRANCH  17  19
ENDBRANCH   6  17
ENDBRANCH   1   5
BRANCH   3  28
ATOM     28  C   UNL     1      47.479  57.976  19.838  1.00  0.00    +0.160 C 
BRANCH  28  29
ATOM     29  C   UNL     1      46.906  58.960  18.800  1.00  0.00    +0.189 C 
ATOM     30  C   UNL     1      47.069  60.403  19.283  1.00  0.00    +0.055 C 
BRANCH  29  31
ATOM     31  O   UNL     1      47.650  58.858  17.580  1.00  0.00    -0.489 OA
BRANCH  31  32
ATOM     32  C   UNL     1      47.250  57.959  16.631  1.00  0.00    +0.120 A 
ATOM     33  C   UNL     1      47.914  56.785  16.267  1.00  0.00    +0.049 A 
ATOM     34  C   UNL     1      46.060  58.303  15.978  1.00  0.00    +0.049 A 
ATOM     35  C   UNL     1      47.386  55.962  15.268  1.00  0.00    +0.043 A 
ATOM     36  C   UNL     1      45.531  57.482  14.981  1.00  0.00    +0.043 A 
ATOM     37  C   UNL     1      46.200  56.316  14.635  1.00  0.00    +0.123 A 
ATOM     38  F   UNL     1      45.702  55.525  13.678  1.00  0.00    -0.207 F 
ENDBRANCH  31  32
ENDBRANCH  29  31
ENDBRANCH  28  29
ENDBRANCH   3  28
TORSDOF 7
ENDMDL
MODEL 4
REMARK VINA RESULT:    -9.709      2.892      8.694
REMARK INTER + INTRA:         -14.232
REMARK INTER:                 -13.568
REMARK INTRA:                  -0.665
REMARK UNBOUND:                -0.550
REMARK SMILES Cc1ccc(C(=O)N2C[C@@H](C(=O)NC[C@@H](C)Oc3ccc(F)cc3)C3(CC[NH2+]CC3)C2)c(F)c1F
REMARK SMILES IDX 11 1 12 2 13 3 10 5 8 6 9 7 31 8 25 9 26 10 30 11 27 12
REMARK SMILES IDX 29 13 28 14 6 17 7 18 5 19 2 20 3 21 34 22 4 23 32 24 1 25
REMARK SMILES IDX 35 26 33 27 14 28 15 29 16 30 17 31 18 32 19 33 24 34 20 35
REMARK SMILES IDX 23 36 21 37 22 38
REMARK H PARENT 13 4 28 15 28 16
ROOT
ATOM      1  C   UNL     1      49.502  55.788  18.850  1.00  0.00    +0.225 C 
ATOM      2  O   UNL     1      48.730  54.839  18.712  1.00  0.00    -0.275 OA
ATOM      3  N   UNL     1      49.181  57.068  18.485  1.00  0.00    -0.352 N 
ATOM      4  H   UNL     1      49.814  57.835  18.698  1.00  0.00    +0.163 HD
ENDROOT
BRANCH   1   5
ATOM      5  C   UNL     1      50.936  55.523  19.295  1.00  0.00    +0.106 C 
ATOM      6  N   UNL     1      51.242  53.224  19.677  1.00  0.00    -0.337 N 
ATOM      7  C   UNL     1      51.511  54.251  18.685  1.00  0.00    +0.134 C 
ATOM      8  C   UNL     1      50.864  53.787  20.969  1.00  0.00    +0.128 C 
ATOM      9  C   UNL     1      51.090  55.311  20.832  1.00  0.00    +0.012 C 
ATOM     10  C   UNL     1      50.091  56.101  21.708  1.00  0.00    +0.071 C 
ATOM     11  C   UNL     1      52.528  55.678  21.299  1.00  0.00    +0.071 C 
ATOM     12  C   UNL     1      50.344  57.603  21.687  1.00  0.00    +0.261 C 
ATOM     13  C   UNL     1      52.788  57.183  21.318  1.00  0.00    +0.261 C 
ATOM     14  N   UNL     1      51.744  57.860  22.138  1.00  0.00    -0.346 N 
ATOM     15  H   UNL     1      51.910  58.877  22.115  1.00  0.00    +0.346 HD
ATOM     16  H   UNL     1      51.844  57.592  23.127  1.00  0.00    +0.346 HD
BRANCH   6  17
ATOM     17  C   UNL     1      51.503  51.898  19.377  1.00  0.00    +0.256 C 
ATOM     18  O   UNL     1      52.642  51.441  19.366  1.00  0.00    -0.269 OA
BRANCH  17  19
ATOM     19  C   UNL     1      50.384  50.990  19.079  1.00  0.00    +0.078 A 
ATOM     20  C   UNL     1      48.308  49.199  18.494  1.00  0.00    -0.012 A 
ATOM     21  C   UNL     1      49.207  48.924  19.535  1.00  0.00    +0.007 A 
ATOM     22  C   UNL     1      48.490  50.359  17.735  1.00  0.00    +0.162 A 
ATOM     23  C   UNL     1      50.244  49.815  19.826  1.00  0.00    +0.017 A 
ATOM     24  C   UNL     1      49.523  51.247  18.017  1.00  0.00    +0.171 A 
ATOM     25  C   UNL     1      47.211  48.237  18.150  1.00  0.00    +0.047 C 
ATOM     26  F   UNL     1      47.657  50.627  16.719  1.00  0.00    -0.203 F 
ATOM     27  F   UNL     1      49.685  52.339  17.252  1.00  0.00    -0.203 F 
ENDBRANCH  17  19
ENDBRANCH   6  17
ENDBRANCH   1   5
BRANCH   3  28
ATOM     28  C   UNL     1      47.842  57.428  18.044  1.00  0.00    +0.160 C 
BRANCH  28  29
ATOM     29  C   UNL     1      47.110  58.386  19.003  1.00  0.00    +0.189 C 
ATOM     30  C   UNL     1      47.504  58.097  20.454  1.00  0.00    +0.055 C 
BRANCH  29  31
ATOM     31  O   UNL     1      47.516  59.735  18.737  1.00  0.00    -0.489 OA
BRANCH  31  32
ATOM     32  C   UNL     1      46.655  60.757  19.022  1.00  0.00    +0.120 A 
ATOM     33  C   UNL     1      46.979  61.968  19.639  1.00  0.00    +0.049 A 
ATOM     34  C   UNL     1      45.328  60.510  18.652  1.00  0.00    +0.049 A 
ATOM     35  C   UNL     1      45.985  62.923  19.872  1.00  0.00    +0.043 A 
ATOM     36  C   UNL     1      44.334  61.463  18.885  1.00  0.00    +0.043 A 
ATOM     37  C   UNL     1      44.673  62.663  19.494  1.00  0.00    +0.123 A 
ATOM     38  F   UNL     1      43.726  63.581  19.723  1.00  0.00    -0.207 F 
ENDBRANCH  31  32
ENDBRANCH  29  31
ENDBRANCH  28  29
ENDBRANCH   3  28
TORSDOF 7
ENDMDL
MODEL 5
REMARK VINA RESULT:    -8.719      6.607     10.271
REMARK INTER + INTRA:         -12.837
REMARK INTER:                 -11.259
REMARK INTRA:                  -1.578
REMARK UNBOUND:                -0.550
REMARK SMILES Cc1ccc(C(=O)N2C[C@@H](C(=O)NC[C@@H](C)Oc3ccc(F)cc3)C3(CC[NH2+]CC3)C2)c(F)c1F
REMARK SMILES IDX 11 1 12 2 13 3 10 5 8 6 9 7 31 8 25 9 26 10 30 11 27 12
REMARK SMILES IDX 29 13 28 14 6 17 7 18 5 19 2 20 3 21 34 22 4 23 32 24 1 25
REMARK SMILES IDX 35 26 33 27 14 28 15 29 16 30 17 31 18 32 19 33 24 34 20 35
REMARK SMILES IDX 23 36 21 37 22 38
REMARK H PARENT 13 4 28 15 28 16
ROOT
ATOM      1  C   UNL     1      43.087  61.491  16.194  1.00  0.00    +0.225 C 
ATOM      2  O   UNL     1      42.199  61.950  15.475  1.00  0.00    -0.275 OA
ATOM      3  N   UNL     1      43.592  60.228  16.040  1.00  0.00    -0.352 N 
ATOM      4  H   UNL     1      44.384  59.922  16.598  1.00  0.00    +0.163 HD
ENDROOT
BRANCH   1   5
ATOM      5  C   UNL     1      43.544  62.287  17.411  1.00  0.00    +0.106 C 
ATOM      6  N   UNL     1      45.453  61.290  18.349  1.00  0.00    -0.337 N 
ATOM      7  C   UNL     1      45.060  62.400  17.500  1.00  0.00    +0.134 C 
ATOM      8  C   UNL     1      44.320  60.706  19.060  1.00  0.00    +0.128 C 
ATOM      9  C   UNL     1      43.129  61.651  18.773  1.00  0.00    +0.012 C 
ATOM     10  C   UNL     1      41.795  60.870  18.754  1.00  0.00    +0.071 C 
ATOM     11  C   UNL     1      43.033  62.735  19.883  1.00  0.00    +0.071 C 
ATOM     12  C   UNL     1      40.582  61.775  18.580  1.00  0.00    +0.261 C 
ATOM     13  C   UNL     1      41.803  63.630  19.745  1.00  0.00    +0.261 C 
ATOM     14  N   UNL     1      40.576  62.786  19.679  1.00  0.00    -0.346 N 
ATOM     15  H   UNL     1      39.757  63.399  19.552  1.00  0.00    +0.346 HD
ATOM     16  H   UNL     1      40.423  62.316  20.582  1.00  0.00    +0.346 HD
BRANCH   6  17
ATOM     17  C   UNL     1      46.797  61.002  18.520  1.00  0.00    +0.256 C 
ATOM     18  O   UNL     1      47.670  61.855  18.397  1.00  0.00    -0.269 OA
BRANCH  17  19
ATOM     19  C   UNL     1      47.204  59.635  18.882  1.00  0.00    +0.078 A 
ATOM     20  C   UNL     1      48.050  57.062  19.606  1.00  0.00    -0.012 A 
ATOM     21  C   UNL     1      47.852  58.043  20.588  1.00  0.00    +0.007 A 
ATOM     22  C   UNL     1      47.854  57.402  18.263  1.00  0.00    +0.162 A 
ATOM     23  C   UNL     1      47.432  59.327  20.228  1.00  0.00    +0.017 A 
ATOM     24  C   UNL     1      47.441  58.679  17.899  1.00  0.00    +0.171 A 
ATOM     25  C   UNL     1      48.531  55.691  19.973  1.00  0.00    +0.047 C 
ATOM     26  F   UNL     1      48.062  56.485  17.307  1.00  0.00    -0.203 F 
ATOM     27  F   UNL     1      47.286  58.979  16.600  1.00  0.00    -0.203 F 
ENDBRANCH  17  19
ENDBRANCH   6  17
ENDBRANCH   1   5
BRANCH   3  28
ATOM     28  C   UNL     1      43.220  59.384  14.914  1.00  0.00    +0.160 C 
BRANCH  28  29
ATOM     29  C   UNL     1      43.108  57.890  15.271  1.00  0.00    +0.189 C 
ATOM     30  C   UNL     1      41.658  57.523  15.594  1.00  0.00    +0.055 C 
BRANCH  29  31
ATOM     31  O   UNL     1      43.481  57.096  14.138  1.00  0.00    -0.489 OA
BRANCH  31  32
ATOM     32  C   UNL     1      44.794  57.049  13.762  1.00  0.00    +0.120 A 
ATOM     33  C   UNL     1      45.892  56.842  14.602  1.00  0.00    +0.049 A 
ATOM     34  C   UNL     1      45.008  57.247  12.392  1.00  0.00    +0.049 A 
ATOM     35  C   UNL     1      47.186  56.825  14.073  1.00  0.00    +0.043 A 
ATOM     36  C   UNL     1      46.299  57.230  11.862  1.00  0.00    +0.043 A 
ATOM     37  C   UNL     1      47.378  57.019  12.710  1.00  0.00    +0.123 A 
ATOM     38  F   UNL     1      48.620  57.003  12.211  1.00  0.00    -0.207 F 
ENDBRANCH  31  32
ENDBRANCH  29  31
ENDBRANCH  28  29
ENDBRANCH   3  28
TORSDOF 7
ENDMDL
