MODEL 1
REMARK VINA RESULT:   -11.038      0.000      0.000
REMARK INTER + INTRA:         -14.860
REMARK INTER:                 -14.264
REMARK INTRA:                  -0.596
REMARK UNBOUND:                -0.596
REMARK SMILES CN1CCCc2cc(CNC(=O)[C@H]3CN(C(=O)c4ccc(F)cc4F)CC34CC[NH2+]CC4)ccc21
REMARK SMILES IDX 13 1 14 2 15 3 26 4 27 5 28 6 29 7 30 8 31 9 32 10 11 13
REMARK SMILES IDX 10 14 12 15 9 17 8 18 2 19 3 20 35 21 4 22 6 23 34 24 5 25
REMARK SMILES IDX 7 26 33 27 1 28 16 29 17 30 18 31 19 32 24 33 20 34 23 35
REMARK SMILES IDX 21 36 25 37 22 38
REMARK H PARENT 30 11 30 12 10 16
ROOT
ATOM      1  C   UNL     1      49.788  51.013  18.083  1.00  0.00    +0.106 C 
ATOM      2  C   UNL     1      48.819  52.193  18.046  1.00  0.00    +0.134 C 
ATOM      3  N   UNL     1      49.693  53.358  18.122  1.00  0.00    -0.337 N 
ATOM      4  C   UNL     1      51.070  52.971  18.382  1.00  0.00    +0.128 C 
ATOM      5  C   UNL     1      50.966  51.541  18.965  1.00  0.00    +0.012 C 
ATOM      6  C   UNL     1      50.634  51.652  20.482  1.00  0.00    +0.071 C 
ATOM      7  C   UNL     1      51.899  51.797  21.311  1.00  0.00    +0.261 C 
ATOM      8  N   UNL     1      52.747  50.575  21.170  1.00  0.00    -0.346 N 
ATOM      9  C   UNL     1      52.654  49.831  19.875  1.00  0.00    +0.261 C 
ATOM     10  C   UNL     1      52.288  50.770  18.735  1.00  0.00    +0.071 C 
ATOM     11  H   UNL     1      52.496  49.914  21.919  1.00  0.00    +0.346 HD
ATOM     12  H   UNL     1      53.729  50.827  21.353  1.00  0.00    +0.346 HD
ENDROOT
BRANCH   1  13
ATOM     13  C   UNL     1      49.154  49.702  18.503  1.00  0.00    +0.225 C 
ATOM     14  N   UNL     1      47.791  49.659  18.381  1.00  0.00    -0.352 N 
ATOM     15  O   UNL     1      49.828  48.729  18.829  1.00  0.00    -0.275 OA
ATOM     16  H   UNL     1      47.270  50.442  18.007  1.00  0.00    +0.163 HD
BRANCH  14  17
ATOM     17  C   UNL     1      47.041  48.447  18.644  1.00  0.00    +0.151 C 
BRANCH  17  18
ATOM     18  C   UNL     1      46.215  48.074  17.447  1.00  0.00    -0.028 A 
ATOM     19  N   UNL     1      43.829  47.166  14.042  1.00  0.00    -0.374 N 
ATOM     20  C   UNL     1      44.152  47.869  12.797  1.00  0.00    +0.116 C 
ATOM     21  C   UNL     1      44.604  47.472  15.166  1.00  0.00    +0.040 A 
ATOM     22  C   UNL     1      45.648  47.833  12.545  1.00  0.00    +0.026 C 
ATOM     23  C   UNL     1      45.851  48.120  15.031  1.00  0.00    -0.024 A 
ATOM     24  C   UNL     1      44.217  47.109  16.467  1.00  0.00    +0.026 A 
ATOM     25  C   UNL     1      46.366  48.548  13.677  1.00  0.00    +0.039 C 
ATOM     26  C   UNL     1      46.634  48.426  16.160  1.00  0.00    +0.011 A 
ATOM     27  C   UNL     1      44.999  47.409  17.589  1.00  0.00    +0.008 A 
ATOM     28  C   UNL     1      42.436  46.765  14.206  1.00  0.00    +0.143 C 
ENDBRANCH  17  18
ENDBRANCH  14  17
ENDBRANCH   1  13
BRANCH   3  29
ATOM     29  C   UNL     1      49.327  54.693  18.161  1.00  0.00    +0.256 C 
ATOM     30  O   UNL     1      48.614  55.203  17.296  1.00  0.00    -0.269 OA
BRANCH  29  31
ATOM     31  C   UNL     1      49.852  55.564  19.229  1.00  0.00    +0.075 A 
ATOM     32  C   UNL     1      51.201  55.940  19.187  1.00  0.00    +0.020 A 
ATOM     33  C   UNL     1      49.015  56.087  20.216  1.00  0.00    +0.138 A 
ATOM     34  C   UNL     1      51.706  56.804  20.160  1.00  0.00    +0.040 A 
ATOM     35  C   UNL     1      49.516  56.945  21.188  1.00  0.00    +0.079 A 
ATOM     36  C   UNL     1      50.860  57.295  21.150  1.00  0.00    +0.126 A 
ATOM     37  F   UNL     1      47.709  55.783  20.238  1.00  0.00    -0.206 F 
ATOM     38  F   UNL     1      51.349  58.121  22.083  1.00  0.00    -0.207 F 
ENDBRANCH  29  31
ENDBRANCH   3  29
TORSDOF 5
ENDMDL
MODEL 2
REMARK VINA RESULT:   -10.996      3.593      8.885
REMARK INTER + INTRA:         -14.806
REMARK INTER:                 -13.981
REMARK INTRA:                  -0.825
REMARK UNBOUND:                -0.596
REMARK SMILES CN1CCCc2cc(CNC(=O)[C@H]3CN(C(=O)c4ccc(F)cc4F)CC34CC[NH2+]CC4)ccc21
REMARK SMILES IDX 13 1 14 2 15 3 26 4 27 5 28 6 29 7 30 8 31 9 32 10 11 13
REMARK SMILES IDX 10 14 12 15 9 17 8 18 2 19 3 20 35 21 4 22 6 23 34 24 5 25
REMARK SMILES IDX 7 26 33 27 1 28 16 29 17 30 18 31 19 32 24 33 20 34 23 35
REMARK SMILES IDX 21 36 25 37 22 38
REMARK H PARENT 30 11 30 12 10 16
ROOT
ATOM      1  C   UNL     1      49.656  52.054  18.745  1.00  0.00    +0.106 C 
ATOM      2  C   UNL     1      49.369  51.728  17.281  1.00  0.00    +0.134 C 
ATOM      3  N   UNL     1      49.325  50.270  17.255  1.00  0.00    -0.337 N 
ATOM      4  C   UNL     1      49.738  49.706  18.529  1.00  0.00    +0.128 C 
ATOM      5  C   UNL     1      50.526  50.845  19.220  1.00  0.00    +0.012 C 
ATOM      6  C   UNL     1      51.981  50.843  18.664  1.00  0.00    +0.071 C 
ATOM      7  C   UNL     1      52.865  49.885  19.444  1.00  0.00    +0.261 C 
ATOM      8  N   UNL     1      52.974  50.332  20.866  1.00  0.00    -0.346 N 
ATOM      9  C   UNL     1      51.806  51.075  21.436  1.00  0.00    +0.261 C 
ATOM     10  C   UNL     1      50.512  50.654  20.755  1.00  0.00    +0.071 C 
ATOM     11  H   UNL     1      53.797  50.946  20.954  1.00  0.00    +0.346 HD
ATOM     12  H   UNL     1      53.185  49.516  21.458  1.00  0.00    +0.346 HD
ENDROOT
BRANCH   1  13
ATOM     13  C   UNL     1      50.227  53.439  18.972  1.00  0.00    +0.225 C 
ATOM     14  N   UNL     1      49.607  54.161  19.956  1.00  0.00    -0.352 N 
ATOM     15  O   UNL     1      51.230  53.834  18.383  1.00  0.00    -0.275 OA
ATOM     16  H   UNL     1      48.848  53.769  20.500  1.00  0.00    +0.163 HD
BRANCH  14  17
ATOM     17  C   UNL     1      50.093  55.464  20.366  1.00  0.00    +0.151 C 
BRANCH  17  18
ATOM     18  C   UNL     1      49.150  56.540  19.909  1.00  0.00    -0.028 A 
ATOM     19  N   UNL     1      46.597  59.662  18.550  1.00  0.00    -0.374 N 
ATOM     20  C   UNL     1      46.528  59.881  17.102  1.00  0.00    +0.116 C 
ATOM     21  C   UNL     1      47.446  58.644  19.000  1.00  0.00    +0.040 A 
ATOM     22  C   UNL     1      46.347  58.560  16.377  1.00  0.00    +0.026 C 
ATOM     23  C   UNL     1      47.909  57.645  18.117  1.00  0.00    -0.024 A 
ATOM     24  C   UNL     1      47.833  58.530  20.345  1.00  0.00    +0.026 A 
ATOM     25  C   UNL     1      47.546  57.668  16.651  1.00  0.00    +0.039 C 
ATOM     26  C   UNL     1      48.759  56.617  18.569  1.00  0.00    +0.011 A 
ATOM     27  C   UNL     1      48.675  57.506  20.795  1.00  0.00    +0.008 A 
ATOM     28  C   UNL     1      46.360  60.834  19.385  1.00  0.00    +0.143 C 
ENDBRANCH  17  18
ENDBRANCH  14  17
ENDBRANCH   1  13
BRANCH   3  29
ATOM     29  C   UNL     1      49.131  49.446  16.159  1.00  0.00    +0.256 C 
ATOM     30  O   UNL     1      49.877  49.469  15.181  1.00  0.00    -0.269 OA
BRANCH  29  31
ATOM     31  C   UNL     1      47.958  48.553  16.116  1.00  0.00    +0.075 A 
ATOM     32  C   UNL     1      46.797  48.998  15.471  1.00  0.00    +0.020 A 
ATOM     33  C   UNL     1      48.018  47.253  16.621  1.00  0.00    +0.138 A 
ATOM     34  C   UNL     1      45.693  48.149  15.375  1.00  0.00    +0.040 A 
ATOM     35  C   UNL     1      46.918  46.406  16.530  1.00  0.00    +0.079 A 
ATOM     36  C   UNL     1      45.765  46.865  15.908  1.00  0.00    +0.126 A 
ATOM     37  F   UNL     1      49.141  46.790  17.191  1.00  0.00    -0.206 F 
ATOM     38  F   UNL     1      44.703  46.055  15.816  1.00  0.00    -0.207 F 
ENDBRANCH  29  31
ENDBRANCH   3  29
TORSDOF 5
ENDMDL
MODEL 3
REMARK VINA RESULT:   -10.869      1.880      2.946
REMARK INTER + INTRA:         -14.642
REMARK INTER:                 -14.115
REMARK INTRA:                  -0.527
REMARK UNBOUND:                -0.596
REMARK SMILES CN1CCCc2cc(CNC(=O)[C@H]3CN(C(=O)c4ccc(F)cc4F)CC34CC[NH2+]CC4)ccc21
REMARK SMILES IDX 13 1 14 2 15 3 26 4 27 5 28 6 29 7 30 8 31 9 32 10 11 13
REMARK SMILES IDX 10 14 12 15 9 17 8 18 2 19 3 20 35 21 4 22 6 23 34 24 5 25
REMARK SMILES IDX 7 26 33 27 1 28 16 29 17 30 18 31 19 32 24 33 20 34 23 35
REMARK SMILES IDX 21 36 25 37 22 38
REMARK H PARENT 30 11 30 12 10 16
ROOT
ATOM      1  C   UNL     1      52.148  51.953  18.400  1.00  0.00    +0.106 C 
ATOM      2  C   UNL     1      51.240  53.181  18.389  1.00  0.00    +0.134 C 
ATOM      3  N   UNL     1      51.125  53.536  19.800  1.00  0.00    -0.337 N 
ATOM      4  C   UNL     1      51.732  52.525  20.650  1.00  0.00    +0.128 C 
ATOM      5  C   UNL     1      51.804  51.262  19.759  1.00  0.00    +0.012 C 
ATOM      6  C   UNL     1      50.415  50.559  19.789  1.00  0.00    +0.071 C 
ATOM      7  C   UNL     1      50.307  49.607  20.969  1.00  0.00    +0.261 C 
ATOM      8  N   UNL     1      51.314  48.510  20.834  1.00  0.00    -0.346 N 
ATOM      9  C   UNL     1      52.584  48.839  20.114  1.00  0.00    +0.261 C 
ATOM     10  C   UNL     1      52.923  50.315  20.258  1.00  0.00    +0.071 C 
ATOM     11  H   UNL     1      50.876  47.723  20.335  1.00  0.00    +0.346 HD
ATOM     12  H   UNL     1      51.535  48.143  21.771  1.00  0.00    +0.346 HD
ENDROOT
BRANCH   1  13
ATOM     13  C   UNL     1      52.048  51.097  17.153  1.00  0.00    +0.225 C 
ATOM     14  N   UNL     1      50.771  50.796  16.764  1.00  0.00    -0.352 N 
ATOM     15  O   UNL     1      53.038  50.788  16.495  1.00  0.00    -0.275 OA
ATOM     16  H   UNL     1      49.968  51.155  17.266  1.00  0.00    +0.163 HD
BRANCH  14  17
ATOM     17  C   UNL     1      50.499  50.072  15.538  1.00  0.00    +0.151 C 
BRANCH  17  18
ATOM     18  C   UNL     1      49.068  49.617  15.508  1.00  0.00    -0.028 A 
ATOM     19  N   UNL     1      45.061  48.183  15.458  1.00  0.00    -0.374 N 
ATOM     20  C   UNL     1      44.549  47.598  16.700  1.00  0.00    +0.116 C 
ATOM     21  C   UNL     1      46.383  48.644  15.468  1.00  0.00    +0.040 A 
ATOM     22  C   UNL     1      44.882  48.493  17.880  1.00  0.00    +0.026 C 
ATOM     23  C   UNL     1      47.055  48.884  16.685  1.00  0.00    -0.024 A 
ATOM     24  C   UNL     1      47.084  48.940  14.287  1.00  0.00    +0.026 A 
ATOM     25  C   UNL     1      46.392  48.607  18.013  1.00  0.00    +0.039 C 
ATOM     26  C   UNL     1      48.384  49.352  16.698  1.00  0.00    +0.011 A 
ATOM     27  C   UNL     1      48.403  49.409  14.300  1.00  0.00    +0.008 A 
ATOM     28  C   UNL     1      44.480  47.669  14.222  1.00  0.00    +0.143 C 
ENDBRANCH  17  18
ENDBRANCH  14  17
ENDBRANCH   1  13
BRANCH   3  29
ATOM     29  C   UNL     1      50.382  54.561  20.359  1.00  0.00    +0.256 C 
ATOM     30  O   UNL     1      49.157  54.506  20.457  1.00  0.00    -0.269 OA
BRANCH  29  31
ATOM     31  C   UNL     1      51.058  55.797  20.797  1.00  0.00    +0.075 A 
ATOM     32  C   UNL     1      52.424  55.948  20.527  1.00  0.00    +0.020 A 
ATOM     33  C   UNL     1      50.346  56.845  21.384  1.00  0.00    +0.138 A 
ATOM     34  C   UNL     1      53.072  57.131  20.888  1.00  0.00    +0.040 A 
ATOM     35  C   UNL     1      50.989  58.023  21.747  1.00  0.00    +0.079 A 
ATOM     36  C   UNL     1      52.348  58.153  21.496  1.00  0.00    +0.126 A 
ATOM     37  F   UNL     1      49.025  56.740  21.597  1.00  0.00    -0.206 F 
ATOM     38  F   UNL     1      52.974  59.285  21.842  1.00  0.00    -0.207 F 
ENDBRANCH  29  31
ENDBRANCH   3  29
TORSDOF 5
ENDMDL
MODEL 4
REMARK VINA RESULT:   -10.636      4.219      8.140
REMARK INTER + INTRA:         -14.341
REMARK INTER:                 -13.205
REMARK INTRA:                  -1.136
REMARK UNBOUND:                -0.596
REMARK SMILES CN1CCCc2cc(CNC(=O)[C@H]3CN(C(=O)c4ccc(F)cc4F)CC34CC[NH2+]CC4)ccc21
REMARK SMILES IDX 13 1 14 2 15 3 26 4 27 5 28 6 29 7 30 8 31 9 32 10 11 13
REMARK SMILES IDX 10 14 12 15 9 17 8 18 2 19 3 20 35 21 4 22 6 23 34 24 5 25
REMARK SMILES IDX 7 26 33 27 1 28 16 29 17 30 18 31 19 32 24 33 20 34 23 35
REMARK SMILES IDX 21 36 25 37 22 38
REMARK H PARENT 30 11 30 12 10 16
ROOT
ATOM      1  C   UNL     1      49.751  55.631  20.690  1.00  0.00    +0.106 C 
ATOM      2  C   UNL     1      49.409  54.756  19.485  1.00  0.00    +0.134 C 
ATOM      3  N   UNL     1      50.474  53.758  19.473  1.00  0.00    -0.337 N 
ATOM      4  C   UNL     1      51.506  54.072  20.447  1.00  0.00    +0.128 C 
ATOM      5  C   UNL     1      51.313  55.579  20.742  1.00  0.00    +0.012 C 
ATOM      6  C   UNL     1      52.020  56.395  19.620  1.00  0.00    +0.071 C 
ATOM      7  C   UNL     1      53.489  56.615  19.945  1.00  0.00    +0.261 C 
ATOM      8  N   UNL     1      53.620  57.435  21.187  1.00  0.00    -0.346 N 
ATOM      9  C   UNL     1      52.530  57.307  22.204  1.00  0.00    +0.261 C 
ATOM     10  C   UNL     1      51.884  55.931  22.137  1.00  0.00    +0.071 C 
ATOM     11  H   UNL     1      53.672  58.428  20.920  1.00  0.00    +0.346 HD
ATOM     12  H   UNL     1      54.528  57.229  21.628  1.00  0.00    +0.346 HD
ENDROOT
BRANCH   1  13
ATOM     13  C   UNL     1      49.112  57.005  20.660  1.00  0.00    +0.225 C 
ATOM     14  N   UNL     1      48.646  57.394  19.434  1.00  0.00    -0.352 N 
ATOM     15  O   UNL     1      48.943  57.666  21.681  1.00  0.00    -0.275 OA
ATOM     16  H   UNL     1      48.704  56.783  18.629  1.00  0.00    +0.163 HD
BRANCH  14  17
ATOM     17  C   UNL     1      47.920  58.636  19.254  1.00  0.00    +0.151 C 
BRANCH  17  18
ATOM     18  C   UNL     1      47.227  58.647  17.922  1.00  0.00    -0.028 A 
ATOM     19  N   UNL     1      45.398  58.716  14.079  1.00  0.00    -0.374 N 
ATOM     20  C   UNL     1      45.926  57.788  13.076  1.00  0.00    +0.116 C 
ATOM     21  C   UNL     1      46.006  58.704  15.340  1.00  0.00    +0.040 A 
ATOM     22  C   UNL     1      46.084  56.401  13.672  1.00  0.00    +0.026 C 
ATOM     23  C   UNL     1      46.811  57.618  15.745  1.00  0.00    -0.024 A 
ATOM     24  C   UNL     1      45.809  59.731  16.278  1.00  0.00    +0.026 A 
ATOM     25  C   UNL     1      47.083  56.458  14.817  1.00  0.00    +0.039 C 
ATOM     26  C   UNL     1      47.420  57.602  17.014  1.00  0.00    +0.011 A 
ATOM     27  C   UNL     1      46.412  59.712  17.543  1.00  0.00    +0.008 A 
ATOM     28  C   UNL     1      44.816  59.951  13.564  1.00  0.00    +0.143 C 
ENDBRANCH  17  18
ENDBRANCH  14  17
ENDBRANCH   1  13
BRANCH   3  29
ATOM     29  C   UNL     1      50.667  52.736  18.559  1.00  0.00    +0.256 C 
ATOM     30  O   UNL     1      51.770  52.492  18.071  1.00  0.00    -0.269 OA
BRANCH  29  31
ATOM     31  C   UNL     1      49.512  51.946  18.093  1.00  0.00    +0.075 A 
ATOM     32  C   UNL     1      48.636  52.519  17.163  1.00  0.00    +0.020 A 
ATOM     33  C   UNL     1      49.334  50.619  18.489  1.00  0.00    +0.138 A 
ATOM     34  C   UNL     1      47.565  51.771  16.671  1.00  0.00    +0.040 A 
ATOM     35  C   UNL     1      48.266  49.872  18.004  1.00  0.00    +0.079 A 
ATOM     36  C   UNL     1      47.391  50.457  17.098  1.00  0.00    +0.126 A 
ATOM     37  F   UNL     1      50.196  50.035  19.335  1.00  0.00    -0.206 F 
ATOM     38  F   UNL     1      46.362  49.744  16.626  1.00  0.00    -0.207 F 
ENDBRANCH  29  31
ENDBRANCH   3  29
TORSDOF 5
ENDMDL
MODEL 5
REMARK VINA RESULT:   -10.537      2.032      3.178
REMARK INTER + INTRA:         -14.213
REMARK INTER:                 -13.705
REMARK INTRA:                  -0.507
REMARK UNBOUND:                -0.596
REMARK SMILES CN1CCCc2cc(CNC(=O)[C@H]3CN(C(=O)c4ccc(F)cc4F)CC34CC[NH2+]CC4)ccc21
REMARK SMILES IDX 13 1 14 2 15 3 26 4 27 5 28 6 29 7 30 8 31 9 32 10 11 13
REMARK SMILES IDX 10 14 12 15 9 17 8 18 2 19 3 20 35 21 4 22 6 23 34 24 5 25
REMARK SMILES IDX 7 26 33 27 1 28 16 29 17 30 18 31 19 32 24 33 20 34 23 35
REMARK SMILES IDX 21 36 25 37 22 38
REMARK H PARENT 30 11 30 12 10 16
ROOT
ATOM      1  C   UNL     1      52.063  51.989  18.771  1.00  0.00    +0.106 C 
ATOM      2  C   UNL     1      51.475  53.354  19.123  1.00  0.00    +0.134 C 
ATOM      3  N   UNL     1      51.782  53.504  20.542  1.00  0.00    -0.337 N 
ATOM      4  C   UNL     1      52.335  52.280  21.096  1.00  0.00    +0.128 C 
ATOM      5  C   UNL     1      51.911  51.177  20.098  1.00  0.00    +0.012 C 
ATOM      6  C   UNL     1      50.449  50.752  20.426  1.00  0.00    +0.071 C 
ATOM      7  C   UNL     1      50.418  49.669  21.492  1.00  0.00    +0.261 C 
ATOM      8  N   UNL     1      51.095  48.436  20.987  1.00  0.00    -0.346 N 
ATOM      9  C   UNL     1      52.196  48.625  19.991  1.00  0.00    +0.261 C 
ATOM     10  C   UNL     1      52.878  49.971  20.185  1.00  0.00    +0.071 C 
ATOM     11  H   UNL     1      50.387  47.831  20.547  1.00  0.00    +0.346 HD
ATOM     12  H   UNL     1      51.447  47.896  21.791  1.00  0.00    +0.346 HD
ENDROOT
BRANCH   1  13
ATOM     13  C   UNL     1      51.481  51.367  17.517  1.00  0.00    +0.225 C 
ATOM     14  N   UNL     1      50.147  51.604  17.326  1.00  0.00    -0.352 N 
ATOM     15  O   UNL     1      52.182  50.784  16.695  1.00  0.00    -0.275 OA
ATOM     16  H   UNL     1      49.616  52.179  17.968  1.00  0.00    +0.163 HD
BRANCH  14  17
ATOM     17  C   UNL     1      49.460  51.165  16.127  1.00  0.00    +0.151 C 
BRANCH  17  18
ATOM     18  C   UNL     1      48.409  50.149  16.470  1.00  0.00    -0.028 A 
ATOM     19  N   UNL     1      45.320  47.371  17.399  1.00  0.00    -0.374 N 
ATOM     20  C   UNL     1      44.443  46.961  16.299  1.00  0.00    +0.116 C 
ATOM     21  C   UNL     1      46.329  48.294  17.099  1.00  0.00    +0.040 A 
ATOM     22  C   UNL     1      45.265  46.602  15.075  1.00  0.00    +0.026 C 
ATOM     23  C   UNL     1      46.724  48.526  15.763  1.00  0.00    -0.024 A 
ATOM     24  C   UNL     1      47.031  48.990  18.097  1.00  0.00    +0.026 A 
ATOM     25  C   UNL     1      46.041  47.825  14.613  1.00  0.00    +0.039 C 
ATOM     26  C   UNL     1      47.741  49.451  15.460  1.00  0.00    +0.011 A 
ATOM     27  C   UNL     1      48.046  49.907  17.794  1.00  0.00    +0.008 A 
ATOM     28  C   UNL     1      44.727  47.349  18.731  1.00  0.00    +0.143 C 
ENDBRANCH  17  18
ENDBRANCH  14  17
ENDBRANCH   1  13
BRANCH   3  29
ATOM     29  C   UNL     1      51.441  54.555  21.377  1.00  0.00    +0.256 C 
ATOM     30  O   UNL     1      51.987  54.732  22.465  1.00  0.00    -0.269 OA
BRANCH  29  31
ATOM     31  C   UNL     1      50.343  55.462  20.996  1.00  0.00    +0.075 A 
ATOM     32  C   UNL     1      49.275  54.949  20.248  1.00  0.00    +0.020 A 
ATOM     33  C   UNL     1      50.306  56.785  21.443  1.00  0.00    +0.138 A 
ATOM     34  C   UNL     1      48.201  55.779  19.920  1.00  0.00    +0.040 A 
ATOM     35  C   UNL     1      49.240  57.614  21.114  1.00  0.00    +0.079 A 
ATOM     36  C   UNL     1      48.196  57.102  20.354  1.00  0.00    +0.126 A 
ATOM     37  F   UNL     1      51.292  57.276  22.208  1.00  0.00    -0.206 F 
ATOM     38  F   UNL     1      47.166  57.894  20.035  1.00  0.00    -0.207 F 
ENDBRANCH  29  31
ENDBRANCH   3  29
TORSDOF 5
ENDMDL
