MODEL 1
REMARK VINA RESULT:    -9.233      0.000      0.000
REMARK INTER + INTRA:         -14.645
REMARK INTER:                 -13.551
REMARK INTRA:                  -1.093
REMARK UNBOUND:                -1.093
REMARK SMILES CC(C)CCNC(=O)[C@H]1CN(C(=O)c2ccc(OC(F)(F)F)cc2)CC12CC[NH2+]CC2
REMARK SMILES IDX 9 1 10 2 11 3 25 4 26 5 27 6 28 7 29 8 30 9 31 10 7 13 6 14
REMARK SMILES IDX 8 15 5 17 4 18 2 19 1 20 3 21 12 22 13 23 14 24 15 25 24 26
REMARK SMILES IDX 16 27 23 28 17 29 18 30 19 31 20 32 21 33 22 34
REMARK H PARENT 29 11 29 12 6 16
ROOT
ATOM      1  C   UNL     1      49.793  54.743  20.223  1.00  0.00    +0.106 C 
ATOM      2  C   UNL     1      49.809  53.875  18.969  1.00  0.00    +0.134 C 
ATOM      3  N   UNL     1      50.635  52.742  19.346  1.00  0.00    -0.337 N 
ATOM      4  C   UNL     1      51.274  52.954  20.637  1.00  0.00    +0.128 C 
ATOM      5  C   UNL     1      51.215  54.496  20.843  1.00  0.00    +0.012 C 
ATOM      6  C   UNL     1      52.413  55.119  20.062  1.00  0.00    +0.071 C 
ATOM      7  C   UNL     1      52.749  56.581  20.339  1.00  0.00    +0.261 C 
ATOM      8  N   UNL     1      52.226  57.005  21.660  1.00  0.00    -0.346 N 
ATOM      9  C   UNL     1      52.257  55.964  22.706  1.00  0.00    +0.261 C 
ATOM     10  C   UNL     1      51.275  54.851  22.349  1.00  0.00    +0.071 C 
ATOM     11  H   UNL     1      51.237  57.296  21.492  1.00  0.00    +0.346 HD
ATOM     12  H   UNL     1      52.685  57.867  21.973  1.00  0.00    +0.346 HD
ENDROOT
BRANCH   1  13
ATOM     13  C   UNL     1      49.372  56.178  19.982  1.00  0.00    +0.225 C 
ATOM     14  N   UNL     1      48.862  56.832  21.072  1.00  0.00    -0.356 N 
ATOM     15  O   UNL     1      49.585  56.735  18.906  1.00  0.00    -0.275 OA
ATOM     16  H   UNL     1      48.838  56.374  21.977  1.00  0.00    +0.163 HD
BRANCH  14  17
ATOM     17  C   UNL     1      48.383  58.205  21.020  1.00  0.00    +0.116 C 
BRANCH  17  18
ATOM     18  C   UNL     1      47.191  58.356  20.071  1.00  0.00    +0.024 C 
BRANCH  18  19
ATOM     19  C   UNL     1      47.359  59.451  18.996  1.00  0.00    -0.016 C 
ATOM     20  C   UNL     1      46.393  60.624  19.150  1.00  0.00    +0.007 C 
ATOM     21  C   UNL     1      47.203  58.834  17.603  1.00  0.00    +0.007 C 
ENDBRANCH  18  19
ENDBRANCH  17  18
ENDBRANCH  14  17
ENDBRANCH   1  13
BRANCH   3  22
ATOM     22  C   UNL     1      50.860  51.717  18.446  1.00  0.00    +0.253 C 
ATOM     23  O   UNL     1      51.975  51.472  17.998  1.00  0.00    -0.269 OA
BRANCH  22  24
ATOM     24  C   UNL     1      49.718  50.871  18.031  1.00  0.00    +0.040 A 
ATOM     25  C   UNL     1      49.336  49.806  18.847  1.00  0.00    +0.017 A 
ATOM     26  C   UNL     1      49.058  51.095  16.818  1.00  0.00    +0.017 A 
ATOM     27  C   UNL     1      48.267  48.992  18.463  1.00  0.00    +0.047 A 
ATOM     28  C   UNL     1      47.985  50.279  16.442  1.00  0.00    +0.047 A 
ATOM     29  C   UNL     1      47.577  49.228  17.269  1.00  0.00    +0.129 A 
BRANCH  29  30
ATOM     30  O   UNL     1      46.557  48.353  17.023  1.00  0.00    -0.406 OA
BRANCH  30  31
ATOM     31  C   UNL     1      45.274  48.676  17.532  1.00  0.00    +0.573 C 
ATOM     32  F   UNL     1      44.336  48.195  16.689  1.00  0.00    -0.132 F 
ATOM     33  F   UNL     1      45.113  50.012  17.636  1.00  0.00    -0.132 F 
ATOM     34  F   UNL     1      45.081  48.107  18.743  1.00  0.00    -0.132 F 
ENDBRANCH  30  31
ENDBRANCH  29  30
ENDBRANCH  22  24
ENDBRANCH   3  22
TORSDOF 8
ENDMDL
MODEL 2
REMARK VINA RESULT:    -8.824      1.391      2.031
REMARK INTER + INTRA:         -14.044
REMARK INTER:                 -13.060
REMARK INTRA:                  -0.984
REMARK UNBOUND:                -1.093
REMARK SMILES CC(C)CCNC(=O)[C@H]1CN(C(=O)c2ccc(OC(F)(F)F)cc2)CC12CC[NH2+]CC2
REMARK SMILES IDX 9 1 10 2 11 3 25 4 26 5 27 6 28 7 29 8 30 9 31 10 7 13 6 14
REMARK SMILES IDX 8 15 5 17 4 18 2 19 1 20 3 21 12 22 13 23 14 24 15 25 24 26
REMARK SMILES IDX 16 27 23 28 17 29 18 30 19 31 20 32 21 33 22 34
REMARK H PARENT 29 11 29 12 6 16
ROOT
ATOM      1  C   UNL     1      49.258  53.855  19.320  1.00  0.00    +0.106 C 
ATOM      2  C   UNL     1      49.170  53.242  17.926  1.00  0.00    +0.134 C 
ATOM      3  N   UNL     1      49.651  51.885  18.117  1.00  0.00    -0.337 N 
ATOM      4  C   UNL     1      50.203  51.697  19.451  1.00  0.00    +0.128 C 
ATOM      5  C   UNL     1      50.511  53.141  19.943  1.00  0.00    +0.012 C 
ATOM      6  C   UNL     1      51.892  53.554  19.347  1.00  0.00    +0.071 C 
ATOM      7  C   UNL     1      52.555  54.807  19.910  1.00  0.00    +0.261 C 
ATOM      8  N   UNL     1      52.037  55.119  21.264  1.00  0.00    -0.346 N 
ATOM      9  C   UNL     1      51.713  53.942  22.094  1.00  0.00    +0.261 C 
ATOM     10  C   UNL     1      50.521  53.204  21.490  1.00  0.00    +0.071 C 
ATOM     11  H   UNL     1      51.171  55.683  21.112  1.00  0.00    +0.346 HD
ATOM     12  H   UNL     1      52.665  55.764  21.755  1.00  0.00    +0.346 HD
ENDROOT
BRANCH   1  13
ATOM     13  C   UNL     1      49.232  55.369  19.338  1.00  0.00    +0.225 C 
ATOM     14  N   UNL     1      48.860  55.937  20.528  1.00  0.00    -0.356 N 
ATOM     15  O   UNL     1      49.627  56.027  18.376  1.00  0.00    -0.275 OA
ATOM     16  H   UNL     1      48.679  55.353  21.337  1.00  0.00    +0.163 HD
BRANCH  14  17
ATOM     17  C   UNL     1      48.753  57.375  20.720  1.00  0.00    +0.116 C 
BRANCH  17  18
ATOM     18  C   UNL     1      47.447  57.931  20.148  1.00  0.00    +0.024 C 
BRANCH  18  19
ATOM     19  C   UNL     1      47.627  59.060  19.111  1.00  0.00    -0.016 C 
ATOM     20  C   UNL     1      46.759  60.288  19.377  1.00  0.00    +0.007 C 
ATOM     21  C   UNL     1      47.340  58.521  17.707  1.00  0.00    +0.007 C 
ENDBRANCH  18  19
ENDBRANCH  17  18
ENDBRANCH  14  17
ENDBRANCH   1  13
BRANCH   3  22
ATOM     22  C   UNL     1      49.694  51.007  17.050  1.00  0.00    +0.253 C 
ATOM     23  O   UNL     1      50.726  50.787  16.425  1.00  0.00    -0.269 OA
BRANCH  22  24
ATOM     24  C   UNL     1      48.455  50.291  16.667  1.00  0.00    +0.040 A 
ATOM     25  C   UNL     1      48.403  49.649  15.431  1.00  0.00    +0.017 A 
ATOM     26  C   UNL     1      47.332  50.296  17.501  1.00  0.00    +0.017 A 
ATOM     27  C   UNL     1      47.237  48.978  15.049  1.00  0.00    +0.047 A 
ATOM     28  C   UNL     1      46.170  49.619  17.116  1.00  0.00    +0.047 A 
ATOM     29  C   UNL     1      46.120  48.948  15.891  1.00  0.00    +0.129 A 
BRANCH  29  30
ATOM     30  O   UNL     1      45.054  48.258  15.389  1.00  0.00    -0.406 OA
BRANCH  30  31
ATOM     31  C   UNL     1      44.473  47.253  16.204  1.00  0.00    +0.573 C 
ATOM     32  F   UNL     1      44.037  47.818  17.350  1.00  0.00    -0.132 F 
ATOM     33  F   UNL     1      45.374  46.296  16.514  1.00  0.00    -0.132 F 
ATOM     34  F   UNL     1      43.414  46.686  15.586  1.00  0.00    -0.132 F 
ENDBRANCH  30  31
ENDBRANCH  29  30
ENDBRANCH  22  24
ENDBRANCH   3  22
TORSDOF 8
ENDMDL
MODEL 3
REMARK VINA RESULT:    -8.629      1.730      2.323
REMARK INTER + INTRA:         -13.758
REMARK INTER:                 -12.413
REMARK INTRA:                  -1.344
REMARK UNBOUND:                -1.093
REMARK SMILES CC(C)CCNC(=O)[C@H]1CN(C(=O)c2ccc(OC(F)(F)F)cc2)CC12CC[NH2+]CC2
REMARK SMILES IDX 9 1 10 2 11 3 25 4 26 5 27 6 28 7 29 8 30 9 31 10 7 13 6 14
REMARK SMILES IDX 8 15 5 17 4 18 2 19 1 20 3 21 12 22 13 23 14 24 15 25 24 26
REMARK SMILES IDX 16 27 23 28 17 29 18 30 19 31 20 32 21 33 22 34
REMARK H PARENT 29 11 29 12 6 16
ROOT
ATOM      1  C   UNL     1      49.758  54.282  20.212  1.00  0.00    +0.106 C 
ATOM      2  C   UNL     1      49.855  53.210  19.132  1.00  0.00    +0.134 C 
ATOM      3  N   UNL     1      50.873  52.306  19.636  1.00  0.00    -0.337 N 
ATOM      4  C   UNL     1      51.530  52.847  20.816  1.00  0.00    +0.128 C 
ATOM      5  C   UNL     1      51.230  54.373  20.754  1.00  0.00    +0.012 C 
ATOM      6  C   UNL     1      52.270  55.016  19.786  1.00  0.00    +0.071 C 
ATOM      7  C   UNL     1      52.376  56.538  19.776  1.00  0.00    +0.261 C 
ATOM      8  N   UNL     1      51.855  57.114  21.040  1.00  0.00    -0.346 N 
ATOM      9  C   UNL     1      52.107  56.301  22.246  1.00  0.00    +0.261 C 
ATOM     10  C   UNL     1      51.303  55.005  22.165  1.00  0.00    +0.071 C 
ATOM     11  H   UNL     1      50.825  57.215  20.901  1.00  0.00    +0.346 HD
ATOM     12  H   UNL     1      52.181  58.078  21.161  1.00  0.00    +0.346 HD
ENDROOT
BRANCH   1  13
ATOM     13  C   UNL     1      49.097  55.567  19.758  1.00  0.00    +0.225 C 
ATOM     14  N   UNL     1      48.844  55.655  18.415  1.00  0.00    -0.356 N 
ATOM     15  O   UNL     1      48.720  56.414  20.568  1.00  0.00    -0.275 OA
ATOM     16  H   UNL     1      49.045  54.869  17.806  1.00  0.00    +0.163 HD
BRANCH  14  17
ATOM     17  C   UNL     1      48.239  56.825  17.798  1.00  0.00    +0.116 C 
BRANCH  17  18
ATOM     18  C   UNL     1      48.205  56.711  16.272  1.00  0.00    +0.024 C 
BRANCH  18  19
ATOM     19  C   UNL     1      47.108  57.554  15.587  1.00  0.00    -0.016 C 
ATOM     20  C   UNL     1      46.403  58.531  16.525  1.00  0.00    +0.007 C 
ATOM     21  C   UNL     1      46.076  56.628  14.937  1.00  0.00    +0.007 C 
ENDBRANCH  18  19
ENDBRANCH  17  18
ENDBRANCH  14  17
ENDBRANCH   1  13
BRANCH   3  22
ATOM     22  C   UNL     1      51.219  51.178  18.914  1.00  0.00    +0.253 C 
ATOM     23  O   UNL     1      52.381  50.806  18.799  1.00  0.00    -0.269 OA
BRANCH  22  24
ATOM     24  C   UNL     1      50.143  50.381  18.281  1.00  0.00    +0.040 A 
ATOM     25  C   UNL     1      49.988  50.437  16.896  1.00  0.00    +0.017 A 
ATOM     26  C   UNL     1      49.258  49.622  19.053  1.00  0.00    +0.017 A 
ATOM     27  C   UNL     1      48.970  49.701  16.284  1.00  0.00    +0.047 A 
ATOM     28  C   UNL     1      48.244  48.882  18.435  1.00  0.00    +0.047 A 
ATOM     29  C   UNL     1      48.101  48.910  17.045  1.00  0.00    +0.129 A 
BRANCH  29  30
ATOM     30  O   UNL     1      47.156  48.248  16.314  1.00  0.00    -0.406 OA
BRANCH  30  31
ATOM     31  C   UNL     1      47.012  46.853  16.530  1.00  0.00    +0.573 C 
ATOM     32  F   UNL     1      46.308  46.657  17.664  1.00  0.00    -0.132 F 
ATOM     33  F   UNL     1      48.215  46.254  16.663  1.00  0.00    -0.132 F 
ATOM     34  F   UNL     1      46.336  46.278  15.511  1.00  0.00    -0.132 F 
ENDBRANCH  30  31
ENDBRANCH  29  30
ENDBRANCH  22  24
ENDBRANCH   3  22
TORSDOF 8
ENDMDL
MODEL 4
REMARK VINA RESULT:    -8.582      5.280      9.156
REMARK INTER + INTRA:         -13.689
REMARK INTER:                 -12.678
REMARK INTRA:                  -1.011
REMARK UNBOUND:                -1.093
REMARK SMILES CC(C)CCNC(=O)[C@H]1CN(C(=O)c2ccc(OC(F)(F)F)cc2)CC12CC[NH2+]CC2
REMARK SMILES IDX 9 1 10 2 11 3 25 4 26 5 27 6 28 7 29 8 30 9 31 10 7 13 6 14
REMARK SMILES IDX 8 15 5 17 4 18 2 19 1 20 3 21 12 22 13 23 14 24 15 25 24 26
REMARK SMILES IDX 16 27 23 28 17 29 18 30 19 31 20 32 21 33 22 34
REMARK H PARENT 29 11 29 12 6 16
ROOT
ATOM      1  C   UNL     1      49.023  50.283  18.774  1.00  0.00    +0.106 C 
ATOM      2  C   UNL     1      50.273  50.354  19.644  1.00  0.00    +0.134 C 
ATOM      3  N   UNL     1      50.735  51.720  19.469  1.00  0.00    -0.337 N 
ATOM      4  C   UNL     1      49.991  52.405  18.422  1.00  0.00    +0.128 C 
ATOM      5  C   UNL     1      49.361  51.254  17.586  1.00  0.00    +0.012 C 
ATOM      6  C   UNL     1      50.449  50.750  16.588  1.00  0.00    +0.071 C 
ATOM      7  C   UNL     1      49.997  49.826  15.462  1.00  0.00    +0.261 C 
ATOM      8  N   UNL     1      48.546  49.979  15.199  1.00  0.00    -0.346 N 
ATOM      9  C   UNL     1      48.024  51.349  15.369  1.00  0.00    +0.261 C 
ATOM     10  C   UNL     1      48.095  51.744  16.842  1.00  0.00    +0.071 C 
ATOM     11  H   UNL     1      48.068  49.342  15.873  1.00  0.00    +0.346 HD
ATOM     12  H   UNL     1      48.300  49.594  14.281  1.00  0.00    +0.346 HD
ENDROOT
BRANCH   1  13
ATOM     13  C   UNL     1      48.584  48.875  18.427  1.00  0.00    +0.225 C 
ATOM     14  N   UNL     1      47.280  48.746  18.031  1.00  0.00    -0.356 N 
ATOM     15  O   UNL     1      49.388  47.943  18.401  1.00  0.00    -0.275 OA
ATOM     16  H   UNL     1      46.694  49.568  17.931  1.00  0.00    +0.163 HD
BRANCH  14  17
ATOM     17  C   UNL     1      46.680  47.467  17.686  1.00  0.00    +0.116 C 
BRANCH  17  18
ATOM     18  C   UNL     1      46.933  47.096  16.222  1.00  0.00    +0.024 C 
BRANCH  18  19
ATOM     19  C   UNL     1      45.674  47.107  15.328  1.00  0.00    -0.016 C 
ATOM     20  C   UNL     1      45.751  48.094  14.165  1.00  0.00    +0.007 C 
ATOM     21  C   UNL     1      44.439  47.410  16.182  1.00  0.00    +0.007 C 
ENDBRANCH  18  19
ENDBRANCH  17  18
ENDBRANCH  14  17
ENDBRANCH   1  13
BRANCH   3  22
ATOM     22  C   UNL     1      51.861  52.163  20.139  1.00  0.00    +0.253 C 
ATOM     23  O   UNL     1      52.798  51.419  20.408  1.00  0.00    -0.269 OA
BRANCH  22  24
ATOM     24  C   UNL     1      51.945  53.592  20.521  1.00  0.00    +0.040 A 
ATOM     25  C   UNL     1      51.569  53.968  21.810  1.00  0.00    +0.017 A 
ATOM     26  C   UNL     1      52.342  54.564  19.597  1.00  0.00    +0.017 A 
ATOM     27  C   UNL     1      51.631  55.313  22.183  1.00  0.00    +0.047 A 
ATOM     28  C   UNL     1      52.407  55.908  19.977  1.00  0.00    +0.047 A 
ATOM     29  C   UNL     1      52.061  56.289  21.277  1.00  0.00    +0.129 A 
BRANCH  29  30
ATOM     30  O   UNL     1      52.069  57.560  21.778  1.00  0.00    -0.406 OA
BRANCH  30  31
ATOM     31  C   UNL     1      53.313  58.238  21.839  1.00  0.00    +0.573 C 
ATOM     32  F   UNL     1      53.730  58.500  20.583  1.00  0.00    -0.132 F 
ATOM     33  F   UNL     1      54.250  57.482  22.452  1.00  0.00    -0.132 F 
ATOM     34  F   UNL     1      53.188  59.413  22.494  1.00  0.00    -0.132 F 
ENDBRANCH  30  31
ENDBRANCH  29  30
ENDBRANCH  22  24
ENDBRANCH   3  22
TORSDOF 8
ENDMDL
MODEL 5
REMARK VINA RESULT:    -8.140      5.848      9.166
REMARK INTER + INTRA:         -13.041
REMARK INTER:                 -11.482
REMARK INTRA:                  -1.559
REMARK UNBOUND:                -1.093
REMARK SMILES CC(C)CCNC(=O)[C@H]1CN(C(=O)c2ccc(OC(F)(F)F)cc2)CC12CC[NH2+]CC2
REMARK SMILES IDX 9 1 10 2 11 3 25 4 26 5 27 6 28 7 29 8 30 9 31 10 7 13 6 14
REMARK SMILES IDX 8 15 5 17 4 18 2 19 1 20 3 21 12 22 13 23 14 24 15 25 24 26
REMARK SMILES IDX 16 27 23 28 17 29 18 30 19 31 20 32 21 33 22 34
REMARK H PARENT 29 11 29 12 6 16
ROOT
ATOM      1  C   UNL     1      45.576  62.072  19.122  1.00  0.00    +0.106 C 
ATOM      2  C   UNL     1      45.533  60.556  18.958  1.00  0.00    +0.134 C 
ATOM      3  N   UNL     1      46.833  60.235  18.396  1.00  0.00    -0.337 N 
ATOM      4  C   UNL     1      47.566  61.437  18.025  1.00  0.00    +0.128 C 
ATOM      5  C   UNL     1      46.468  62.534  17.915  1.00  0.00    +0.012 C 
ATOM      6  C   UNL     1      45.817  62.404  16.503  1.00  0.00    +0.071 C 
ATOM      7  C   UNL     1      44.916  63.544  16.036  1.00  0.00    +0.261 C 
ATOM      8  N   UNL     1      45.223  64.797  16.766  1.00  0.00    -0.346 N 
ATOM      9  C   UNL     1      46.648  64.988  17.104  1.00  0.00    +0.261 C 
ATOM     10  C   UNL     1      47.074  63.942  18.131  1.00  0.00    +0.071 C 
ATOM     11  H   UNL     1      44.663  64.755  17.647  1.00  0.00    +0.346 HD
ATOM     12  H   UNL     1      44.841  65.609  16.271  1.00  0.00    +0.346 HD
ENDROOT
BRANCH   1  13
ATOM     13  C   UNL     1      44.217  62.721  19.280  1.00  0.00    +0.225 C 
ATOM     14  N   UNL     1      43.148  61.867  19.221  1.00  0.00    -0.356 N 
ATOM     15  O   UNL     1      44.106  63.916  19.553  1.00  0.00    -0.275 OA
ATOM     16  H   UNL     1      43.297  60.867  19.137  1.00  0.00    +0.163 HD
BRANCH  14  17
ATOM     17  C   UNL     1      41.768  62.317  19.327  1.00  0.00    +0.116 C 
BRANCH  17  18
ATOM     18  C   UNL     1      40.795  61.325  18.683  1.00  0.00    +0.024 C 
BRANCH  18  19
ATOM     19  C   UNL     1      41.470  60.156  17.933  1.00  0.00    -0.016 C 
ATOM     20  C   UNL     1      41.551  60.356  16.421  1.00  0.00    +0.007 C 
ATOM     21  C   UNL     1      40.730  58.851  18.242  1.00  0.00    +0.007 C 
ENDBRANCH  18  19
ENDBRANCH  17  18
ENDBRANCH  14  17
ENDBRANCH   1  13
BRANCH   3  22
ATOM     22  C   UNL     1      47.167  58.920  18.126  1.00  0.00    +0.253 C 
ATOM     23  O   UNL     1      46.843  58.364  17.083  1.00  0.00    -0.269 OA
BRANCH  22  24
ATOM     24  C   UNL     1      47.965  58.171  19.124  1.00  0.00    +0.040 A 
ATOM     25  C   UNL     1      48.665  57.037  18.712  1.00  0.00    +0.017 A 
ATOM     26  C   UNL     1      47.981  58.553  20.469  1.00  0.00    +0.017 A 
ATOM     27  C   UNL     1      49.413  56.311  19.644  1.00  0.00    +0.047 A 
ATOM     28  C   UNL     1      48.736  57.826  21.396  1.00  0.00    +0.047 A 
ATOM     29  C   UNL     1      49.464  56.706  20.985  1.00  0.00    +0.129 A 
BRANCH  29  30
ATOM     30  O   UNL     1      50.233  55.903  21.780  1.00  0.00    -0.406 OA
BRANCH  30  31
ATOM     31  C   UNL     1      51.591  56.264  21.967  1.00  0.00    +0.573 C 
ATOM     32  F   UNL     1      52.026  55.741  23.132  1.00  0.00    -0.132 F 
ATOM     33  F   UNL     1      51.736  57.605  22.019  1.00  0.00    -0.132 F 
ATOM     34  F   UNL     1      52.360  55.769  20.971  1.00  0.00    -0.132 F 
ENDBRANCH  30  31
ENDBRANCH  29  30
ENDBRANCH  22  24
ENDBRANCH   3  22
TORSDOF 8
ENDMDL
