MODEL 1
REMARK VINA RESULT:   -10.116      0.000      0.000
REMARK INTER + INTRA:         -13.948
REMARK INTER:                 -13.664
REMARK INTRA:                  -0.285
REMARK UNBOUND:                -0.285
REMARK SMILES CC[C@@H](C)C(=O)N1C[C@@H](C(=O)NCc2ccc3c(c2)CCCN3C)C2(CC[NH2+]CC2)C1
REMARK SMILES IDX 7 1 8 2 9 3 25 4 31 5 26 6 27 7 28 8 29 9 30 10 5 13 6 14
REMARK SMILES IDX 3 15 4 16 2 17 1 18 10 19 11 20 12 21 13 23 14 24 15 25
REMARK SMILES IDX 19 26 16 27 18 28 17 29 20 30 23 31 21 32 22 33 24 34
REMARK H PARENT 28 11 28 12 12 22
ROOT
ATOM      1  N   UNL     1      51.191  54.302  21.049  1.00  0.00    -0.341 N 
ATOM      2  C   UNL     1      50.271  54.447  19.928  1.00  0.00    +0.133 C 
ATOM      3  C   UNL     1      49.938  53.008  19.534  1.00  0.00    +0.106 C 
ATOM      4  C   UNL     1      51.238  52.223  19.903  1.00  0.00    +0.012 C 
ATOM      5  C   UNL     1      51.554  52.910  21.258  1.00  0.00    +0.127 C 
ATOM      6  C   UNL     1      52.444  52.453  18.943  1.00  0.00    +0.071 C 
ATOM      7  C   UNL     1      52.588  51.352  17.902  1.00  0.00    +0.261 C 
ATOM      8  N   UNL     1      52.801  50.034  18.585  1.00  0.00    -0.346 N 
ATOM      9  C   UNL     1      52.211  49.877  19.951  1.00  0.00    +0.261 C 
ATOM     10  C   UNL     1      50.946  50.715  20.068  1.00  0.00    +0.071 C 
ATOM     11  H   UNL     1      53.813  49.848  18.638  1.00  0.00    +0.346 HD
ATOM     12  H   UNL     1      52.425  49.299  17.968  1.00  0.00    +0.346 HD
ENDROOT
BRANCH   1  13
ATOM     13  C   UNL     1      51.658  55.423  21.708  1.00  0.00    +0.225 C 
ATOM     14  O   UNL     1      51.999  55.351  22.888  1.00  0.00    -0.275 OA
BRANCH  13  15
ATOM     15  C   UNL     1      51.751  56.733  20.913  1.00  0.00    +0.075 C 
ATOM     16  C   UNL     1      53.221  57.112  20.742  1.00  0.00    +0.018 C 
BRANCH  15  17
ATOM     17  C   UNL     1      50.996  57.881  21.608  1.00  0.00    +0.010 C 
ATOM     18  C   UNL     1      49.505  57.589  21.737  1.00  0.00    +0.005 C 
ENDBRANCH  15  17
ENDBRANCH  13  15
ENDBRANCH   1  13
BRANCH   3  19
ATOM     19  C   UNL     1      49.492  52.925  18.088  1.00  0.00    +0.225 C 
ATOM     20  O   UNL     1      49.113  53.912  17.464  1.00  0.00    -0.275 OA
ATOM     21  N   UNL     1      49.591  51.668  17.541  1.00  0.00    -0.352 N 
ATOM     22  H   UNL     1      49.735  50.868  18.149  1.00  0.00    +0.163 HD
BRANCH  21  23
ATOM     23  C   UNL     1      49.054  51.350  16.230  1.00  0.00    +0.151 C 
BRANCH  23  24
ATOM     24  C   UNL     1      47.943  50.344  16.370  1.00  0.00    -0.028 A 
ATOM     25  C   UNL     1      47.268  50.185  17.581  1.00  0.00    +0.008 A 
ATOM     26  C   UNL     1      47.522  49.593  15.268  1.00  0.00    +0.011 A 
ATOM     27  C   UNL     1      46.201  49.281  17.689  1.00  0.00    +0.026 A 
ATOM     28  C   UNL     1      46.439  48.697  15.370  1.00  0.00    -0.024 A 
ATOM     29  C   UNL     1      45.766  48.507  16.600  1.00  0.00    +0.040 A 
ATOM     30  C   UNL     1      46.054  47.910  14.141  1.00  0.00    +0.039 C 
ATOM     31  N   UNL     1      44.672  47.634  16.697  1.00  0.00    -0.374 N 
ATOM     32  C   UNL     1      44.649  47.343  14.260  1.00  0.00    +0.026 C 
ATOM     33  C   UNL     1      44.505  46.661  15.611  1.00  0.00    +0.116 C 
ATOM     34  C   UNL     1      44.240  47.170  18.017  1.00  0.00    +0.143 C 
ENDBRANCH  23  24
ENDBRANCH  21  23
ENDBRANCH   3  19
TORSDOF 6
ENDMDL
MODEL 2
REMARK VINA RESULT:    -8.944      4.396      7.770
REMARK INTER + INTRA:         -12.366
REMARK INTER:                 -11.492
REMARK INTRA:                  -0.874
REMARK UNBOUND:                -0.285
REMARK SMILES CC[C@@H](C)C(=O)N1C[C@@H](C(=O)NCc2ccc3c(c2)CCCN3C)C2(CC[NH2+]CC2)C1
REMARK SMILES IDX 7 1 8 2 9 3 25 4 31 5 26 6 27 7 28 8 29 9 30 10 5 13 6 14
REMARK SMILES IDX 3 15 4 16 2 17 1 18 10 19 11 20 12 21 13 23 14 24 15 25
REMARK SMILES IDX 19 26 16 27 18 28 17 29 20 30 23 31 21 32 22 33 24 34
REMARK H PARENT 28 11 28 12 12 22
ROOT
ATOM      1  N   UNL     1      51.618  53.497  19.037  1.00  0.00    -0.341 N 
ATOM      2  C   UNL     1      50.296  54.104  18.949  1.00  0.00    +0.133 C 
ATOM      3  C   UNL     1      50.558  55.594  19.167  1.00  0.00    +0.106 C 
ATOM      4  C   UNL     1      51.805  55.607  20.108  1.00  0.00    +0.012 C 
ATOM      5  C   UNL     1      52.620  54.469  19.438  1.00  0.00    +0.127 C 
ATOM      6  C   UNL     1      51.522  55.202  21.586  1.00  0.00    +0.071 C 
ATOM      7  C   UNL     1      51.352  56.404  22.505  1.00  0.00    +0.261 C 
ATOM      8  N   UNL     1      52.604  57.230  22.496  1.00  0.00    -0.346 N 
ATOM      9  C   UNL     1      53.433  57.188  21.250  1.00  0.00    +0.261 C 
ATOM     10  C   UNL     1      52.537  56.966  20.041  1.00  0.00    +0.071 C 
ATOM     11  H   UNL     1      53.192  56.949  23.294  1.00  0.00    +0.346 HD
ATOM     12  H   UNL     1      52.336  58.205  22.690  1.00  0.00    +0.346 HD
ENDROOT
BRANCH   1  13
ATOM     13  C   UNL     1      51.769  52.140  18.822  1.00  0.00    +0.225 C 
ATOM     14  O   UNL     1      52.671  51.724  18.096  1.00  0.00    -0.275 OA
BRANCH  13  15
ATOM     15  C   UNL     1      50.794  51.190  19.533  1.00  0.00    +0.075 C 
ATOM     16  C   UNL     1      51.527  50.482  20.671  1.00  0.00    +0.018 C 
BRANCH  15  17
ATOM     17  C   UNL     1      50.203  50.147  18.567  1.00  0.00    +0.010 C 
ATOM     18  C   UNL     1      48.907  50.632  17.925  1.00  0.00    +0.005 C 
ENDBRANCH  15  17
ENDBRANCH  13  15
ENDBRANCH   1  13
BRANCH   3  19
ATOM     19  C   UNL     1      49.320  56.299  19.685  1.00  0.00    +0.225 C 
ATOM     20  O   UNL     1      48.428  55.700  20.278  1.00  0.00    -0.275 OA
ATOM     21  N   UNL     1      49.314  57.656  19.467  1.00  0.00    -0.352 N 
ATOM     22  H   UNL     1      49.983  58.062  18.821  1.00  0.00    +0.163 HD
BRANCH  21  23
ATOM     23  C   UNL     1      48.147  58.477  19.734  1.00  0.00    +0.151 C 
BRANCH  23  24
ATOM     24  C   UNL     1      47.380  58.694  18.458  1.00  0.00    -0.028 A 
ATOM     25  C   UNL     1      46.628  59.854  18.261  1.00  0.00    +0.008 A 
ATOM     26  C   UNL     1      47.458  57.765  17.416  1.00  0.00    +0.011 A 
ATOM     27  C   UNL     1      45.957  60.071  17.049  1.00  0.00    +0.026 A 
ATOM     28  C   UNL     1      46.799  57.990  16.190  1.00  0.00    -0.024 A 
ATOM     29  C   UNL     1      46.010  59.148  15.990  1.00  0.00    +0.040 A 
ATOM     30  C   UNL     1      46.917  56.934  15.119  1.00  0.00    +0.039 C 
ATOM     31  N   UNL     1      45.374  59.385  14.763  1.00  0.00    -0.374 N 
ATOM     32  C   UNL     1      46.551  57.484  13.750  1.00  0.00    +0.026 C 
ATOM     33  C   UNL     1      45.235  58.238  13.858  1.00  0.00    +0.116 C 
ATOM     34  C   UNL     1      44.285  60.361  14.697  1.00  0.00    +0.143 C 
ENDBRANCH  23  24
ENDBRANCH  21  23
ENDBRANCH   3  19
TORSDOF 6
ENDMDL
MODEL 3
REMARK VINA RESULT:    -8.884      4.557      8.720
REMARK INTER + INTRA:         -12.285
REMARK INTER:                 -11.518
REMARK INTRA:                  -0.767
REMARK UNBOUND:                -0.285
REMARK SMILES CC[C@@H](C)C(=O)N1C[C@@H](C(=O)NCc2ccc3c(c2)CCCN3C)C2(CC[NH2+]CC2)C1
REMARK SMILES IDX 7 1 8 2 9 3 25 4 31 5 26 6 27 7 28 8 29 9 30 10 5 13 6 14
REMARK SMILES IDX 3 15 4 16 2 17 1 18 10 19 11 20 12 21 13 23 14 24 15 25
REMARK SMILES IDX 19 26 16 27 18 28 17 29 20 30 23 31 21 32 22 33 24 34
REMARK H PARENT 28 11 28 12 12 22
ROOT
ATOM      1  N   UNL     1      51.391  53.620  18.915  1.00  0.00    -0.341 N 
ATOM      2  C   UNL     1      50.075  54.243  18.984  1.00  0.00    +0.133 C 
ATOM      3  C   UNL     1      50.378  55.718  19.246  1.00  0.00    +0.106 C 
ATOM      4  C   UNL     1      51.710  55.673  20.063  1.00  0.00    +0.012 C 
ATOM      5  C   UNL     1      52.441  54.562  19.263  1.00  0.00    +0.127 C 
ATOM      6  C   UNL     1      51.564  55.200  21.540  1.00  0.00    +0.071 C 
ATOM      7  C   UNL     1      51.500  56.357  22.527  1.00  0.00    +0.261 C 
ATOM      8  N   UNL     1      52.757  57.170  22.436  1.00  0.00    -0.346 N 
ATOM      9  C   UNL     1      53.462  57.182  21.116  1.00  0.00    +0.261 C 
ATOM     10  C   UNL     1      52.451  57.027  19.990  1.00  0.00    +0.071 C 
ATOM     11  H   UNL     1      53.415  56.845  23.160  1.00  0.00    +0.346 HD
ATOM     12  H   UNL     1      52.522  58.138  22.702  1.00  0.00    +0.346 HD
ENDROOT
BRANCH   1  13
ATOM     13  C   UNL     1      51.502  52.273  18.622  1.00  0.00    +0.225 C 
ATOM     14  O   UNL     1      52.450  51.860  17.955  1.00  0.00    -0.275 OA
BRANCH  13  15
ATOM     15  C   UNL     1      50.423  51.331  19.173  1.00  0.00    +0.075 C 
ATOM     16  C   UNL     1      50.917  50.715  20.480  1.00  0.00    +0.018 C 
BRANCH  15  17
ATOM     17  C   UNL     1      50.072  50.214  18.173  1.00  0.00    +0.010 C 
ATOM     18  C   UNL     1      49.230  49.116  18.814  1.00  0.00    +0.005 C 
ENDBRANCH  15  17
ENDBRANCH  13  15
ENDBRANCH   1  13
BRANCH   3  19
ATOM     19  C   UNL     1      49.206  56.409  19.914  1.00  0.00    +0.225 C 
ATOM     20  O   UNL     1      48.310  55.781  20.472  1.00  0.00    -0.275 OA
ATOM     21  N   UNL     1      49.264  57.782  19.872  1.00  0.00    -0.352 N 
ATOM     22  H   UNL     1      49.924  58.235  19.249  1.00  0.00    +0.163 HD
BRANCH  21  23
ATOM     23  C   UNL     1      48.157  58.616  20.303  1.00  0.00    +0.151 C 
BRANCH  23  24
ATOM     24  C   UNL     1      47.389  59.094  19.101  1.00  0.00    -0.028 A 
ATOM     25  C   UNL     1      47.279  58.301  17.957  1.00  0.00    +0.008 A 
ATOM     26  C   UNL     1      46.714  60.319  19.129  1.00  0.00    +0.011 A 
ATOM     27  C   UNL     1      46.520  58.733  16.860  1.00  0.00    +0.026 A 
ATOM     28  C   UNL     1      45.936  60.747  18.035  1.00  0.00    -0.024 A 
ATOM     29  C   UNL     1      45.841  59.964  16.860  1.00  0.00    +0.040 A 
ATOM     30  C   UNL     1      45.250  62.087  18.135  1.00  0.00    +0.039 C 
ATOM     31  N   UNL     1      45.048  60.376  15.779  1.00  0.00    -0.374 N 
ATOM     32  C   UNL     1      44.129  62.218  17.118  1.00  0.00    +0.026 C 
ATOM     33  C   UNL     1      44.648  61.788  15.755  1.00  0.00    +0.116 C 
ATOM     34  C   UNL     1      45.255  59.768  14.464  1.00  0.00    +0.143 C 
ENDBRANCH  23  24
ENDBRANCH  21  23
ENDBRANCH   3  19
TORSDOF 6
ENDMDL
MODEL 4
REMARK VINA RESULT:    -8.684      8.394     12.342
REMARK INTER + INTRA:         -12.015
REMARK INTER:                 -10.847
REMARK INTRA:                  -1.168
REMARK UNBOUND:                -0.285
REMARK SMILES CC[C@@H](C)C(=O)N1C[C@@H](C(=O)NCc2ccc3c(c2)CCCN3C)C2(CC[NH2+]CC2)C1
REMARK SMILES IDX 7 1 8 2 9 3 25 4 31 5 26 6 27 7 28 8 29 9 30 10 5 13 6 14
REMARK SMILES IDX 3 15 4 16 2 17 1 18 10 19 11 20 12 21 13 23 14 24 15 25
REMARK SMILES IDX 19 26 16 27 18 28 17 29 20 30 23 31 21 32 22 33 24 34
REMARK H PARENT 28 11 28 12 12 22
ROOT
ATOM      1  N   UNL     1      41.216  60.986  18.404  1.00  0.00    -0.341 N 
ATOM      2  C   UNL     1      42.501  60.886  19.085  1.00  0.00    +0.133 C 
ATOM      3  C   UNL     1      42.875  62.337  19.383  1.00  0.00    +0.106 C 
ATOM      4  C   UNL     1      42.219  63.128  18.205  1.00  0.00    +0.012 C 
ATOM      5  C   UNL     1      40.867  62.370  18.135  1.00  0.00    +0.127 C 
ATOM      6  C   UNL     1      42.936  62.981  16.830  1.00  0.00    +0.071 C 
ATOM      7  C   UNL     1      43.869  64.143  16.523  1.00  0.00    +0.261 C 
ATOM      8  N   UNL     1      43.089  65.424  16.490  1.00  0.00    -0.346 N 
ATOM      9  C   UNL     1      41.858  65.488  17.338  1.00  0.00    +0.261 C 
ATOM     10  C   UNL     1      42.035  64.617  18.572  1.00  0.00    +0.071 C 
ATOM     11  H   UNL     1      42.830  65.629  15.514  1.00  0.00    +0.346 HD
ATOM     12  H   UNL     1      43.728  66.185  16.763  1.00  0.00    +0.346 HD
ENDROOT
BRANCH   1  13
ATOM     13  C   UNL     1      40.538  59.838  18.037  1.00  0.00    +0.225 C 
ATOM     14  O   UNL     1      39.358  59.687  18.352  1.00  0.00    -0.275 OA
BRANCH  13  15
ATOM     15  C   UNL     1      41.302  58.789  17.216  1.00  0.00    +0.075 C 
ATOM     16  C   UNL     1      41.662  59.385  15.856  1.00  0.00    +0.018 C 
BRANCH  15  17
ATOM     17  C   UNL     1      40.477  57.504  17.018  1.00  0.00    +0.010 C 
ATOM     18  C   UNL     1      40.840  56.786  15.723  1.00  0.00    +0.005 C 
ENDBRANCH  15  17
ENDBRANCH  13  15
ENDBRANCH   1  13
BRANCH   3  19
ATOM     19  C   UNL     1      44.374  62.495  19.543  1.00  0.00    +0.225 C 
ATOM     20  O   UNL     1      44.880  63.533  19.962  1.00  0.00    -0.275 OA
ATOM     21  N   UNL     1      45.096  61.370  19.222  1.00  0.00    -0.352 N 
ATOM     22  H   UNL     1      44.644  60.615  18.717  1.00  0.00    +0.163 HD
BRANCH  21  23
ATOM     23  C   UNL     1      46.545  61.376  19.146  1.00  0.00    +0.151 C 
BRANCH  23  24
ATOM     24  C   UNL     1      47.047  59.971  18.952  1.00  0.00    -0.028 A 
ATOM     25  C   UNL     1      47.073  59.387  17.684  1.00  0.00    +0.008 A 
ATOM     26  C   UNL     1      47.557  59.243  20.032  1.00  0.00    +0.011 A 
ATOM     27  C   UNL     1      47.588  58.095  17.505  1.00  0.00    +0.026 A 
ATOM     28  C   UNL     1      48.092  57.952  19.851  1.00  0.00    -0.024 A 
ATOM     29  C   UNL     1      48.097  57.339  18.576  1.00  0.00    +0.040 A 
ATOM     30  C   UNL     1      48.609  57.224  21.067  1.00  0.00    +0.039 C 
ATOM     31  N   UNL     1      48.650  56.064  18.389  1.00  0.00    -0.374 N 
ATOM     32  C   UNL     1      49.529  56.078  20.681  1.00  0.00    +0.026 C 
ATOM     33  C   UNL     1      48.860  55.252  19.594  1.00  0.00    +0.116 C 
ATOM     34  C   UNL     1      48.316  55.306  17.182  1.00  0.00    +0.143 C 
ENDBRANCH  23  24
ENDBRANCH  21  23
ENDBRANCH   3  19
TORSDOF 6
ENDMDL
MODEL 5
REMARK VINA RESULT:    -8.009      7.953     11.671
REMARK INTER + INTRA:         -11.103
REMARK INTER:                  -9.847
REMARK INTRA:                  -1.255
REMARK UNBOUND:                -0.285
REMARK SMILES CC[C@@H](C)C(=O)N1C[C@@H](C(=O)NCc2ccc3c(c2)CCCN3C)C2(CC[NH2+]CC2)C1
REMARK SMILES IDX 7 1 8 2 9 3 25 4 31 5 26 6 27 7 28 8 29 9 30 10 5 13 6 14
REMARK SMILES IDX 3 15 4 16 2 17 1 18 10 19 11 20 12 21 13 23 14 24 15 25
REMARK SMILES IDX 19 26 16 27 18 28 17 29 20 30 23 31 21 32 22 33 24 34
REMARK H PARENT 28 11 28 12 12 22
ROOT
ATOM      1  N   UNL     1      43.728  61.972  15.617  1.00  0.00    -0.341 N 
ATOM      2  C   UNL     1      44.180  61.405  16.881  1.00  0.00    +0.133 C 
ATOM      3  C   UNL     1      44.237  62.605  17.826  1.00  0.00    +0.106 C 
ATOM      4  C   UNL     1      44.580  63.796  16.875  1.00  0.00    +0.012 C 
ATOM      5  C   UNL     1      43.659  63.422  15.683  1.00  0.00    +0.127 C 
ATOM      6  C   UNL     1      46.052  63.832  16.365  1.00  0.00    +0.071 C 
ATOM      7  C   UNL     1      46.932  64.780  17.167  1.00  0.00    +0.261 C 
ATOM      8  N   UNL     1      46.389  66.175  17.075  1.00  0.00    -0.346 N 
ATOM      9  C   UNL     1      44.915  66.315  16.865  1.00  0.00    +0.261 C 
ATOM     10  C   UNL     1      44.187  65.147  17.514  1.00  0.00    +0.071 C 
ATOM     11  H   UNL     1      46.880  66.672  16.318  1.00  0.00    +0.346 HD
ATOM     12  H   UNL     1      46.656  66.671  17.939  1.00  0.00    +0.346 HD
ENDROOT
BRANCH   1  13
ATOM     13  C   UNL     1      43.500  61.146  14.532  1.00  0.00    +0.225 C 
ATOM     14  O   UNL     1      42.972  61.592  13.514  1.00  0.00    -0.275 OA
BRANCH  13  15
ATOM     15  C   UNL     1      43.947  59.681  14.644  1.00  0.00    +0.075 C 
ATOM     16  C   UNL     1      45.227  59.486  13.833  1.00  0.00    +0.018 C 
BRANCH  15  17
ATOM     17  C   UNL     1      42.861  58.712  14.142  1.00  0.00    +0.010 C 
ATOM     18  C   UNL     1      42.327  57.823  15.260  1.00  0.00    +0.005 C 
ENDBRANCH  15  17
ENDBRANCH  13  15
ENDBRANCH   1  13
BRANCH   3  19
ATOM     19  C   UNL     1      45.203  62.359  18.968  1.00  0.00    +0.225 C 
ATOM     20  O   UNL     1      45.261  63.100  19.945  1.00  0.00    -0.275 OA
ATOM     21  N   UNL     1      45.964  61.223  18.826  1.00  0.00    -0.352 N 
ATOM     22  H   UNL     1      46.001  60.756  17.926  1.00  0.00    +0.163 HD
BRANCH  21  23
ATOM     23  C   UNL     1      47.061  60.909  19.723  1.00  0.00    +0.151 C 
BRANCH  23  24
ATOM     24  C   UNL     1      47.493  59.483  19.514  1.00  0.00    -0.028 A 
ATOM     25  C   UNL     1      47.767  58.650  20.600  1.00  0.00    +0.008 A 
ATOM     26  C   UNL     1      47.565  58.944  18.225  1.00  0.00    +0.011 A 
ATOM     27  C   UNL     1      48.121  57.308  20.397  1.00  0.00    +0.026 A 
ATOM     28  C   UNL     1      47.902  57.592  18.021  1.00  0.00    -0.024 A 
ATOM     29  C   UNL     1      48.211  56.746  19.112  1.00  0.00    +0.040 A 
ATOM     30  C   UNL     1      47.974  57.087  16.600  1.00  0.00    +0.039 C 
ATOM     31  N   UNL     1      48.523  55.393  18.912  1.00  0.00    -0.374 N 
ATOM     32  C   UNL     1      47.907  55.570  16.542  1.00  0.00    +0.026 C 
ATOM     33  C   UNL     1      48.891  54.995  17.548  1.00  0.00    +0.116 C 
ATOM     34  C   UNL     1      49.193  54.646  19.978  1.00  0.00    +0.143 C 
ENDBRANCH  23  24
ENDBRANCH  21  23
ENDBRANCH   3  19
TORSDOF 6
ENDMDL
