MODEL 1
REMARK VINA RESULT:    -7.746      0.000      0.000
REMARK INTER + INTRA:         -11.246
REMARK INTER:                 -10.689
REMARK INTRA:                  -0.557
REMARK UNBOUND:                -0.557
REMARK SMILES CCC(CC)(NS(=O)(=O)c1ccc(F)c(F)c1)/C(N)=N/O
REMARK SMILES IDX 3 1 2 2 1 3 4 4 5 5 18 6 20 7 19 8 21 11 6 13 7 15 8 16 9 17
REMARK SMILES IDX 10 18 11 19 17 20 12 21 15 22 13 23 16 24 14 25
REMARK H PARENT 19 9 19 10 21 12 6 14
ROOT
ATOM      1  C   UNL     1      50.417  50.737  18.757  1.00  0.00    +0.093 C 
ENDROOT
BRANCH   1   2
ATOM      2  C   UNL     1      50.174  51.103  17.263  1.00  0.00    +0.028 C 
ATOM      3  C   UNL     1      48.963  51.995  17.003  1.00  0.00    +0.006 C 
ENDBRANCH   1   2
BRANCH   1   4
ATOM      4  C   UNL     1      49.423  49.653  19.259  1.00  0.00    +0.028 C 
ATOM      5  C   UNL     1      49.074  48.556  18.258  1.00  0.00    +0.006 C 
ENDBRANCH   1   4
BRANCH   1   6
ATOM      6  C   UNL     1      51.897  50.253  18.962  1.00  0.00    +0.160 C 
ATOM      7  N   UNL     1      52.213  49.632  20.066  1.00  0.00    -0.074 NA
ATOM      8  N   UNL     1      52.820  50.447  17.954  1.00  0.00    -0.383 N 
ATOM      9  H   UNL     1      52.461  50.257  17.016  1.00  0.00    +0.158 HD
ATOM     10  H   UNL     1      53.638  49.870  18.146  1.00  0.00    +0.158 HD
BRANCH   7  11
ATOM     11  O   UNL     1      53.560  49.233  20.051  1.00  0.00    -0.409 OA
ATOM     12  H   UNL     1      53.837  49.420  20.967  1.00  0.00    +0.330 HD
ENDBRANCH   7  11
ENDBRANCH   1   6
BRANCH   1  13
ATOM     13  N   UNL     1      50.170  51.994  19.527  1.00  0.00    -0.197 NA
ATOM     14  H   UNL     1      49.414  51.969  20.207  1.00  0.00    +0.142 HD
BRANCH  13  15
ATOM     15  S   UNL     1      51.340  53.169  19.720  1.00  0.00    +0.241 S 
ATOM     16  O   UNL     1      51.946  53.445  18.441  1.00  0.00    -0.207 OA
ATOM     17  O   UNL     1      52.138  52.821  20.877  1.00  0.00    -0.207 OA
BRANCH  15  18
ATOM     18  C   UNL     1      50.343  54.572  20.155  1.00  0.00    +0.085 A 
ATOM     19  C   UNL     1      49.085  54.746  19.561  1.00  0.00    +0.025 A 
ATOM     20  C   UNL     1      50.816  55.474  21.114  1.00  0.00    +0.064 A 
ATOM     21  C   UNL     1      48.302  55.844  19.921  1.00  0.00    +0.044 A 
ATOM     22  C   UNL     1      50.024  56.562  21.460  1.00  0.00    +0.160 A 
ATOM     23  C   UNL     1      48.778  56.748  20.867  1.00  0.00    +0.158 A 
ATOM     24  F   UNL     1      50.472  57.437  22.369  1.00  0.00    -0.204 F 
ATOM     25  F   UNL     1      48.022  57.801  21.204  1.00  0.00    -0.204 F 
ENDBRANCH  15  18
ENDBRANCH  13  15
ENDBRANCH   1  13
TORSDOF 7
ENDMDL
MODEL 2
REMARK VINA RESULT:    -7.661      4.651      6.605
REMARK INTER + INTRA:         -11.129
REMARK INTER:                 -10.606
REMARK INTRA:                  -0.523
REMARK UNBOUND:                -0.557
REMARK SMILES CCC(CC)(NS(=O)(=O)c1ccc(F)c(F)c1)/C(N)=N/O
REMARK SMILES IDX 3 1 2 2 1 3 4 4 5 5 18 6 20 7 19 8 21 11 6 13 7 15 8 16 9 17
REMARK SMILES IDX 10 18 11 19 17 20 12 21 15 22 13 23 16 24 14 25
REMARK H PARENT 19 9 19 10 21 12 6 14
ROOT
ATOM      1  C   UNL     1      50.721  51.229  19.226  1.00  0.00    +0.093 C 
ENDROOT
BRANCH   1   2
ATOM      2  C   UNL     1      51.069  50.285  20.415  1.00  0.00    +0.028 C 
ATOM      3  C   UNL     1      50.384  48.922  20.383  1.00  0.00    +0.006 C 
ENDBRANCH   1   2
BRANCH   1   4
ATOM      4  C   UNL     1      50.149  52.590  19.712  1.00  0.00    +0.028 C 
ATOM      5  C   UNL     1      50.530  53.002  21.132  1.00  0.00    +0.006 C 
ENDBRANCH   1   4
BRANCH   1   6
ATOM      6  C   UNL     1      51.990  51.463  18.331  1.00  0.00    +0.160 C 
ATOM      7  N   UNL     1      52.339  52.684  18.033  1.00  0.00    -0.074 NA
ATOM      8  N   UNL     1      52.739  50.378  17.919  1.00  0.00    -0.383 N 
ATOM      9  H   UNL     1      52.882  49.670  18.642  1.00  0.00    +0.158 HD
ATOM     10  H   UNL     1      53.634  50.714  17.568  1.00  0.00    +0.158 HD
BRANCH   7  11
ATOM     11  O   UNL     1      53.519  52.699  17.269  1.00  0.00    -0.409 OA
ATOM     12  H   UNL     1      53.780  53.637  17.317  1.00  0.00    +0.330 HD
ENDBRANCH   7  11
ENDBRANCH   1   6
BRANCH   1  13
ATOM     13  N   UNL     1      49.658  50.524  18.447  1.00  0.00    -0.197 NA
ATOM     14  H   UNL     1      48.923  50.075  18.987  1.00  0.00    +0.142 HD
BRANCH  13  15
ATOM     15  S   UNL     1      49.330  50.886  16.851  1.00  0.00    +0.241 S 
ATOM     16  O   UNL     1      50.342  50.288  16.015  1.00  0.00    -0.207 OA
ATOM     17  O   UNL     1      49.015  52.297  16.768  1.00  0.00    -0.207 OA
BRANCH  15  18
ATOM     18  C   UNL     1      47.824  49.980  16.601  1.00  0.00    +0.085 A 
ATOM     19  C   UNL     1      46.812  50.028  17.569  1.00  0.00    +0.025 A 
ATOM     20  C   UNL     1      47.654  49.253  15.419  1.00  0.00    +0.064 A 
ATOM     21  C   UNL     1      45.625  49.325  17.356  1.00  0.00    +0.044 A 
ATOM     22  C   UNL     1      46.467  48.558  15.223  1.00  0.00    +0.160 A 
ATOM     23  C   UNL     1      45.461  48.591  16.184  1.00  0.00    +0.158 A 
ATOM     24  F   UNL     1      46.299  47.850  14.099  1.00  0.00    -0.204 F 
ATOM     25  F   UNL     1      44.320  47.916  15.989  1.00  0.00    -0.204 F 
ENDBRANCH  15  18
ENDBRANCH  13  15
ENDBRANCH   1  13
TORSDOF 7
ENDMDL
MODEL 3
REMARK VINA RESULT:    -7.498      1.665      2.826
REMARK INTER + INTRA:         -10.905
REMARK INTER:                 -10.666
REMARK INTRA:                  -0.239
REMARK UNBOUND:                -0.557
REMARK SMILES CCC(CC)(NS(=O)(=O)c1ccc(F)c(F)c1)/C(N)=N/O
REMARK SMILES IDX 3 1 2 2 1 3 4 4 5 5 18 6 20 7 19 8 21 11 6 13 7 15 8 16 9 17
REMARK SMILES IDX 10 18 11 19 17 20 12 21 15 22 13 23 16 24 14 25
REMARK H PARENT 19 9 19 10 21 12 6 14
ROOT
ATOM      1  C   UNL     1      50.945  51.089  19.532  1.00  0.00    +0.093 C 
ENDROOT
BRANCH   1   2
ATOM      2  C   UNL     1      49.958  49.923  19.836  1.00  0.00    +0.028 C 
ATOM      3  C   UNL     1      50.534  48.790  20.680  1.00  0.00    +0.006 C 
ENDBRANCH   1   2
BRANCH   1   4
ATOM      4  C   UNL     1      52.125  51.130  20.543  1.00  0.00    +0.028 C 
ATOM      5  C   UNL     1      51.949  52.071  21.732  1.00  0.00    +0.006 C 
ENDBRANCH   1   4
BRANCH   1   6
ATOM      6  C   UNL     1      51.492  50.967  18.065  1.00  0.00    +0.160 C 
ATOM      7  N   UNL     1      52.776  50.823  17.877  1.00  0.00    -0.074 NA
ATOM      8  N   UNL     1      50.604  50.963  17.008  1.00  0.00    -0.383 N 
ATOM      9  H   UNL     1      49.762  50.406  17.171  1.00  0.00    +0.158 HD
ATOM     10  H   UNL     1      51.091  50.637  16.174  1.00  0.00    +0.158 HD
BRANCH   7  11
ATOM     11  O   UNL     1      53.072  50.683  16.511  1.00  0.00    -0.409 OA
ATOM     12  H   UNL     1      52.909  51.583  16.174  1.00  0.00    +0.330 HD
ENDBRANCH   7  11
ENDBRANCH   1   6
BRANCH   1  13
ATOM     13  N   UNL     1      50.149  52.344  19.688  1.00  0.00    -0.197 NA
ATOM     14  H   UNL     1      49.754  52.519  20.608  1.00  0.00    +0.142 HD
BRANCH  13  15
ATOM     15  S   UNL     1      50.332  53.651  18.666  1.00  0.00    +0.241 S 
ATOM     16  O   UNL     1      49.338  53.577  17.623  1.00  0.00    -0.207 OA
ATOM     17  O   UNL     1      51.741  53.788  18.361  1.00  0.00    -0.207 OA
BRANCH  15  18
ATOM     18  C   UNL     1      49.880  54.989  19.742  1.00  0.00    +0.085 A 
ATOM     19  C   UNL     1      50.799  55.464  20.689  1.00  0.00    +0.025 A 
ATOM     20  C   UNL     1      48.617  55.574  19.609  1.00  0.00    +0.064 A 
ATOM     21  C   UNL     1      50.440  56.526  21.520  1.00  0.00    +0.044 A 
ATOM     22  C   UNL     1      48.276  56.629  20.445  1.00  0.00    +0.160 A 
ATOM     23  C   UNL     1      49.178  57.101  21.395  1.00  0.00    +0.158 A 
ATOM     24  F   UNL     1      47.065  57.190  20.333  1.00  0.00    -0.204 F 
ATOM     25  F   UNL     1      48.839  58.118  22.200  1.00  0.00    -0.204 F 
ENDBRANCH  15  18
ENDBRANCH  13  15
ENDBRANCH   1  13
TORSDOF 7
ENDMDL
MODEL 4
REMARK VINA RESULT:    -7.219      4.994      6.590
REMARK INTER + INTRA:         -10.520
REMARK INTER:                 -10.674
REMARK INTRA:                   0.154
REMARK UNBOUND:                -0.557
REMARK SMILES CCC(CC)(NS(=O)(=O)c1ccc(F)c(F)c1)/C(N)=N/O
REMARK SMILES IDX 3 1 2 2 1 3 4 4 5 5 18 6 20 7 19 8 21 11 6 13 7 15 8 16 9 17
REMARK SMILES IDX 10 18 11 19 17 20 12 21 15 22 13 23 16 24 14 25
REMARK H PARENT 19 9 19 10 21 12 6 14
ROOT
ATOM      1  C   UNL     1      51.015  50.497  19.035  1.00  0.00    +0.093 C 
ENDROOT
BRANCH   1   2
ATOM      2  C   UNL     1      50.603  51.631  20.020  1.00  0.00    +0.028 C 
ATOM      3  C   UNL     1      51.358  51.644  21.346  1.00  0.00    +0.006 C 
ENDBRANCH   1   2
BRANCH   1   4
ATOM      4  C   UNL     1      52.042  50.990  17.979  1.00  0.00    +0.028 C 
ATOM      5  C   UNL     1      52.650  52.367  18.234  1.00  0.00    +0.006 C 
ENDBRANCH   1   4
BRANCH   1   6
ATOM      6  C   UNL     1      51.598  49.274  19.830  1.00  0.00    +0.160 C 
ATOM      7  N   UNL     1      50.778  48.482  20.465  1.00  0.00    -0.074 NA
ATOM      8  N   UNL     1      52.956  49.032  19.800  1.00  0.00    -0.383 N 
ATOM      9  H   UNL     1      53.384  49.154  18.880  1.00  0.00    +0.158 HD
ATOM     10  H   UNL     1      53.128  48.091  20.151  1.00  0.00    +0.158 HD
BRANCH   7  11
ATOM     11  O   UNL     1      51.471  47.423  21.075  1.00  0.00    -0.409 OA
ATOM     12  H   UNL     1      51.590  46.804  20.331  1.00  0.00    +0.330 HD
ENDBRANCH   7  11
ENDBRANCH   1   6
BRANCH   1  13
ATOM     13  N   UNL     1      49.761  50.105  18.324  1.00  0.00    -0.197 NA
ATOM     14  H   UNL     1      49.015  49.718  18.897  1.00  0.00    +0.142 HD
BRANCH  13  15
ATOM     15  S   UNL     1      49.340  50.739  16.838  1.00  0.00    +0.241 S 
ATOM     16  O   UNL     1      50.289  50.293  15.849  1.00  0.00    -0.207 OA
ATOM     17  O   UNL     1      49.038  52.144  17.020  1.00  0.00    -0.207 OA
BRANCH  15  18
ATOM     18  C   UNL     1      47.808  49.894  16.530  1.00  0.00    +0.085 A 
ATOM     19  C   UNL     1      46.758  49.995  17.454  1.00  0.00    +0.025 A 
ATOM     20  C   UNL     1      47.660  49.161  15.349  1.00  0.00    +0.064 A 
ATOM     21  C   UNL     1      45.553  49.339  17.195  1.00  0.00    +0.044 A 
ATOM     22  C   UNL     1      46.454  48.515  15.108  1.00  0.00    +0.160 A 
ATOM     23  C   UNL     1      45.409  48.600  16.024  1.00  0.00    +0.158 A 
ATOM     24  F   UNL     1      46.305  47.801  13.984  1.00  0.00    -0.204 F 
ATOM     25  F   UNL     1      44.250  47.971  15.785  1.00  0.00    -0.204 F 
ENDBRANCH  15  18
ENDBRANCH  13  15
ENDBRANCH   1  13
TORSDOF 7
ENDMDL
MODEL 5
REMARK VINA RESULT:    -7.141      3.994      6.228
REMARK INTER + INTRA:         -10.411
REMARK INTER:                 -10.364
REMARK INTRA:                  -0.048
REMARK UNBOUND:                -0.557
REMARK SMILES CCC(CC)(NS(=O)(=O)c1ccc(F)c(F)c1)/C(N)=N/O
REMARK SMILES IDX 3 1 2 2 1 3 4 4 5 5 18 6 20 7 19 8 21 11 6 13 7 15 8 16 9 17
REMARK SMILES IDX 10 18 11 19 17 20 12 21 15 22 13 23 16 24 14 25
REMARK H PARENT 19 9 19 10 21 12 6 14
ROOT
ATOM      1  C   UNL     1      51.086  51.894  19.703  1.00  0.00    +0.093 C 
ENDROOT
BRANCH   1   2
ATOM      2  C   UNL     1      50.520  52.802  20.834  1.00  0.00    +0.028 C 
ATOM      3  C   UNL     1      49.795  54.056  20.357  1.00  0.00    +0.006 C 
ENDBRANCH   1   2
BRANCH   1   4
ATOM      4  C   UNL     1      51.758  52.724  18.573  1.00  0.00    +0.028 C 
ATOM      5  C   UNL     1      53.080  53.396  18.937  1.00  0.00    +0.006 C 
ENDBRANCH   1   4
BRANCH   1   6
ATOM      6  C   UNL     1      52.109  50.861  20.298  1.00  0.00    +0.160 C 
ATOM      7  N   UNL     1      52.686  50.007  19.497  1.00  0.00    -0.074 NA
ATOM      8  N   UNL     1      52.415  50.907  21.643  1.00  0.00    -0.383 N 
ATOM      9  H   UNL     1      52.538  51.852  22.012  1.00  0.00    +0.158 HD
ATOM     10  H   UNL     1      53.251  50.349  21.807  1.00  0.00    +0.158 HD
BRANCH   7  11
ATOM     11  O   UNL     1      53.599  49.199  20.195  1.00  0.00    -0.409 OA
ATOM     12  H   UNL     1      53.010  48.682  20.774  1.00  0.00    +0.330 HD
ENDBRANCH   7  11
ENDBRANCH   1   6
BRANCH   1  13
ATOM     13  N   UNL     1      49.906  51.183  19.125  1.00  0.00    -0.197 NA
ATOM     14  H   UNL     1      49.108  51.053  19.742  1.00  0.00    +0.142 HD
BRANCH  13  15
ATOM     15  S   UNL     1      49.630  51.099  17.481  1.00  0.00    +0.241 S 
ATOM     16  O   UNL     1      50.822  50.618  16.827  1.00  0.00    -0.207 OA
ATOM     17  O   UNL     1      48.984  52.328  17.071  1.00  0.00    -0.207 OA
BRANCH  15  18
ATOM     18  C   UNL     1      48.418  49.802  17.407  1.00  0.00    +0.085 A 
ATOM     19  C   UNL     1      48.830  48.470  17.259  1.00  0.00    +0.025 A 
ATOM     20  C   UNL     1      47.064  50.127  17.529  1.00  0.00    +0.064 A 
ATOM     21  C   UNL     1      47.871  47.457  17.217  1.00  0.00    +0.044 A 
ATOM     22  C   UNL     1      46.122  49.107  17.485  1.00  0.00    +0.160 A 
ATOM     23  C   UNL     1      46.521  47.782  17.328  1.00  0.00    +0.158 A 
ATOM     24  F   UNL     1      44.822  49.408  17.592  1.00  0.00    -0.204 F 
ATOM     25  F   UNL     1      45.606  46.803  17.283  1.00  0.00    -0.204 F 
ENDBRANCH  15  18
ENDBRANCH  13  15
ENDBRANCH   1  13
TORSDOF 7
ENDMDL
