MODEL 1
REMARK VINA RESULT:    -6.151      0.000      0.000
REMARK INTER + INTRA:          -9.716
REMARK INTER:                  -8.668
REMARK INTRA:                  -1.048
REMARK UNBOUND:                -1.048
REMARK SMILES CC(C)N(CCCO)S(=O)(=O)c1c(N)cc(Cl)cc1Cl
REMARK SMILES IDX 4 1 2 2 1 3 3 4 5 5 6 6 7 7 8 8 9 10 10 11 11 12 12 13 13 14
REMARK SMILES IDX 19 15 15 16 18 17 16 18 20 19 17 20 14 21
REMARK H PARENT 8 9 14 22 14 23
ROOT
ATOM      1  N   UNL     1      48.012  48.448  16.620  1.00  0.00    -0.195 NA
ENDROOT
BRANCH   1   2
ATOM      2  C   UNL     1      47.786  46.977  16.838  1.00  0.00    +0.067 C 
ATOM      3  C   UNL     1      46.529  46.521  16.105  1.00  0.00    +0.025 C 
ATOM      4  C   UNL     1      49.000  46.119  16.496  1.00  0.00    +0.025 C 
ENDBRANCH   1   2
BRANCH   1   5
ATOM      5  C   UNL     1      47.766  48.853  15.203  1.00  0.00    +0.105 C 
BRANCH   5   6
ATOM      6  C   UNL     1      48.804  49.892  14.792  1.00  0.00    +0.045 C 
BRANCH   6   7
ATOM      7  C   UNL     1      50.185  49.271  14.662  1.00  0.00    +0.157 C 
BRANCH   7   8
ATOM      8  O   UNL     1      51.113  50.072  15.382  1.00  0.00    -0.396 OA
ATOM      9  H   UNL     1      51.732  49.468  15.828  1.00  0.00    +0.210 HD
ENDBRANCH   7   8
ENDBRANCH   6   7
ENDBRANCH   5   6
ENDBRANCH   1   5
BRANCH   1  10
ATOM     10  S   UNL     1      47.445  49.545  17.813  1.00  0.00    +0.246 S 
ATOM     11  O   UNL     1      46.380  50.316  17.212  1.00  0.00    -0.207 OA
ATOM     12  O   UNL     1      47.198  48.794  19.029  1.00  0.00    -0.207 OA
BRANCH  10  13
ATOM     13  C   UNL     1      48.891  50.542  18.125  1.00  0.00    +0.124 A 
ATOM     14  C   UNL     1      49.995  49.931  18.768  1.00  0.00    +0.055 A 
ATOM     15  C   UNL     1      48.958  51.903  17.785  1.00  0.00    +0.064 A 
ATOM     16  C   UNL     1      51.182  50.662  18.932  1.00  0.00    +0.047 A 
ATOM     17  C   UNL     1      50.139  52.626  18.018  1.00  0.00    +0.042 A 
ATOM     18  C   UNL     1      51.245  52.002  18.576  1.00  0.00    +0.044 A 
ATOM     19 Cl   UNL     1      47.699  52.823  17.042  1.00  0.00    -0.083 Cl
ATOM     20 Cl   UNL     1      52.697  52.889  18.820  1.00  0.00    -0.084 Cl
BRANCH  14  21
ATOM     21  N   UNL     1      50.075  48.557  19.089  1.00  0.00    -0.398 N 
ATOM     22  H   UNL     1      50.177  47.970  18.251  1.00  0.00    +0.156 HD
ATOM     23  H   UNL     1      50.855  48.360  19.715  1.00  0.00    +0.156 HD
ENDBRANCH  14  21
ENDBRANCH  10  13
ENDBRANCH   1  10
TORSDOF 8
ENDMDL
MODEL 2
REMARK VINA RESULT:    -6.000      2.512      3.862
REMARK INTER + INTRA:          -9.503
REMARK INTER:                  -8.713
REMARK INTRA:                  -0.790
REMARK UNBOUND:                -1.048
REMARK SMILES CC(C)N(CCCO)S(=O)(=O)c1c(N)cc(Cl)cc1Cl
REMARK SMILES IDX 4 1 2 2 1 3 3 4 5 5 6 6 7 7 8 8 9 10 10 11 11 12 12 13 13 14
REMARK SMILES IDX 19 15 15 16 18 17 16 18 20 19 17 20 14 21
REMARK H PARENT 8 9 14 22 14 23
ROOT
ATOM      1  N   UNL     1      49.268  49.764  18.210  1.00  0.00    -0.195 NA
ENDROOT
BRANCH   1   2
ATOM      2  C   UNL     1      48.125  48.942  17.679  1.00  0.00    +0.067 C 
ATOM      3  C   UNL     1      48.653  47.700  16.967  1.00  0.00    +0.025 C 
ATOM      4  C   UNL     1      47.079  48.604  18.736  1.00  0.00    +0.025 C 
ENDBRANCH   1   2
BRANCH   1   5
ATOM      5  C   UNL     1      50.131  48.989  19.151  1.00  0.00    +0.105 C 
BRANCH   5   6
ATOM      6  C   UNL     1      50.476  49.867  20.350  1.00  0.00    +0.045 C 
BRANCH   6   7
ATOM      7  C   UNL     1      51.979  49.938  20.569  1.00  0.00    +0.157 C 
BRANCH   7   8
ATOM      8  O   UNL     1      52.601  48.927  19.789  1.00  0.00    -0.396 OA
ATOM      9  H   UNL     1      52.571  49.218  18.860  1.00  0.00    +0.210 HD
ENDBRANCH   7   8
ENDBRANCH   6   7
ENDBRANCH   5   6
ENDBRANCH   1   5
BRANCH   1  10
ATOM     10  S   UNL     1      50.103  50.797  17.121  1.00  0.00    +0.246 S 
ATOM     11  O   UNL     1      51.496  50.411  17.149  1.00  0.00    -0.207 OA
ATOM     12  O   UNL     1      49.379  50.800  15.865  1.00  0.00    -0.207 OA
BRANCH  10  13
ATOM     13  C   UNL     1      49.844  52.403  17.853  1.00  0.00    +0.124 A 
ATOM     14  C   UNL     1      50.961  53.066  18.417  1.00  0.00    +0.055 A 
ATOM     15  C   UNL     1      48.579  53.011  17.913  1.00  0.00    +0.064 A 
ATOM     16  C   UNL     1      50.807  54.372  18.906  1.00  0.00    +0.047 A 
ATOM     17  C   UNL     1      48.445  54.295  18.465  1.00  0.00    +0.042 A 
ATOM     18  C   UNL     1      49.556  54.972  18.945  1.00  0.00    +0.044 A 
ATOM     19 Cl   UNL     1      47.104  52.335  17.322  1.00  0.00    -0.083 Cl
ATOM     20 Cl   UNL     1      49.382  56.559  19.582  1.00  0.00    -0.084 Cl
BRANCH  14  21
ATOM     21  N   UNL     1      52.290  52.592  18.351  1.00  0.00    -0.398 N 
ATOM     22  H   UNL     1      52.976  53.357  18.397  1.00  0.00    +0.156 HD
ATOM     23  H   UNL     1      52.495  51.933  19.102  1.00  0.00    +0.156 HD
ENDBRANCH  14  21
ENDBRANCH  10  13
ENDBRANCH   1  10
TORSDOF 8
ENDMDL
MODEL 3
REMARK VINA RESULT:    -5.787      2.439      3.954
REMARK INTER + INTRA:          -9.204
REMARK INTER:                  -8.314
REMARK INTRA:                  -0.890
REMARK UNBOUND:                -1.048
REMARK SMILES CC(C)N(CCCO)S(=O)(=O)c1c(N)cc(Cl)cc1Cl
REMARK SMILES IDX 4 1 2 2 1 3 3 4 5 5 6 6 7 7 8 8 9 10 10 11 11 12 12 13 13 14
REMARK SMILES IDX 19 15 15 16 18 17 16 18 20 19 17 20 14 21
REMARK H PARENT 8 9 14 22 14 23
ROOT
ATOM      1  N   UNL     1      48.690  49.706  17.650  1.00  0.00    -0.195 NA
ENDROOT
BRANCH   1   2
ATOM      2  C   UNL     1      47.463  49.094  17.029  1.00  0.00    +0.067 C 
ATOM      3  C   UNL     1      47.829  47.812  16.289  1.00  0.00    +0.025 C 
ATOM      4  C   UNL     1      46.322  48.887  18.020  1.00  0.00    +0.025 C 
ENDBRANCH   1   2
BRANCH   1   5
ATOM      5  C   UNL     1      49.481  48.712  18.436  1.00  0.00    +0.105 C 
BRANCH   5   6
ATOM      6  C   UNL     1      49.796  49.296  19.808  1.00  0.00    +0.045 C 
BRANCH   6   7
ATOM      7  C   UNL     1      51.246  49.050  20.195  1.00  0.00    +0.157 C 
BRANCH   7   8
ATOM      8  O   UNL     1      51.336  47.790  20.843  1.00  0.00    -0.396 OA
ATOM      9  H   UNL     1      51.418  47.112  20.149  1.00  0.00    +0.210 HD
ENDBRANCH   7   8
ENDBRANCH   6   7
ENDBRANCH   5   6
ENDBRANCH   1   5
BRANCH   1  10
ATOM     10  S   UNL     1      49.613  50.810  16.712  1.00  0.00    +0.246 S 
ATOM     11  O   UNL     1      50.934  50.245  16.566  1.00  0.00    -0.207 OA
ATOM     12  O   UNL     1      48.837  51.153  15.536  1.00  0.00    -0.207 OA
BRANCH  10  13
ATOM     13  C   UNL     1      49.623  52.264  17.746  1.00  0.00    +0.124 A 
ATOM     14  C   UNL     1      48.430  53.020  17.845  1.00  0.00    +0.055 A 
ATOM     15  C   UNL     1      50.770  52.694  18.434  1.00  0.00    +0.064 A 
ATOM     16  C   UNL     1      48.380  54.108  18.730  1.00  0.00    +0.047 A 
ATOM     17  C   UNL     1      50.706  53.822  19.266  1.00  0.00    +0.042 A 
ATOM     18  C   UNL     1      49.513  54.514  19.420  1.00  0.00    +0.044 A 
ATOM     19 Cl   UNL     1      52.318  51.927  18.396  1.00  0.00    -0.083 Cl
ATOM     20 Cl   UNL     1      49.440  55.871  20.472  1.00  0.00    -0.084 Cl
BRANCH  14  21
ATOM     21  N   UNL     1      47.197  52.650  17.263  1.00  0.00    -0.398 N 
ATOM     22  H   UNL     1      47.230  51.706  16.857  1.00  0.00    +0.156 HD
ATOM     23  H   UNL     1      46.435  52.681  17.939  1.00  0.00    +0.156 HD
ENDBRANCH  14  21
ENDBRANCH  10  13
ENDBRANCH   1  10
TORSDOF 8
ENDMDL
MODEL 4
REMARK VINA RESULT:    -5.679      3.687      6.460
REMARK INTER + INTRA:          -9.051
REMARK INTER:                  -8.829
REMARK INTRA:                  -0.222
REMARK UNBOUND:                -1.048
REMARK SMILES CC(C)N(CCCO)S(=O)(=O)c1c(N)cc(Cl)cc1Cl
REMARK SMILES IDX 4 1 2 2 1 3 3 4 5 5 6 6 7 7 8 8 9 10 10 11 11 12 12 13 13 14
REMARK SMILES IDX 19 15 15 16 18 17 16 18 20 19 17 20 14 21
REMARK H PARENT 8 9 14 22 14 23
ROOT
ATOM      1  N   UNL     1      51.579  52.405  19.660  1.00  0.00    -0.195 NA
ENDROOT
BRANCH   1   2
ATOM      2  C   UNL     1      51.144  53.545  18.780  1.00  0.00    +0.067 C 
ATOM      3  C   UNL     1      49.657  53.824  18.973  1.00  0.00    +0.025 C 
ATOM      4  C   UNL     1      51.996  54.800  18.948  1.00  0.00    +0.025 C 
ENDBRANCH   1   2
BRANCH   1   5
ATOM      5  C   UNL     1      50.752  52.301  20.900  1.00  0.00    +0.105 C 
BRANCH   5   6
ATOM      6  C   UNL     1      51.599  52.703  22.102  1.00  0.00    +0.045 C 
BRANCH   6   7
ATOM      7  C   UNL     1      51.587  54.209  22.309  1.00  0.00    +0.157 C 
BRANCH   7   8
ATOM      8  O   UNL     1      51.603  54.476  23.704  1.00  0.00    -0.396 OA
ATOM      9  H   UNL     1      51.602  55.443  23.814  1.00  0.00    +0.210 HD
ENDBRANCH   7   8
ENDBRANCH   6   7
ENDBRANCH   5   6
ENDBRANCH   1   5
BRANCH   1  10
ATOM     10  S   UNL     1      51.988  50.912  18.916  1.00  0.00    +0.246 S 
ATOM     11  O   UNL     1      52.617  51.224  17.652  1.00  0.00    -0.207 OA
ATOM     12  O   UNL     1      52.691  50.105  19.894  1.00  0.00    -0.207 OA
BRANCH  10  13
ATOM     13  C   UNL     1      50.390  50.152  18.694  1.00  0.00    +0.124 A 
ATOM     14  C   UNL     1      49.669  50.451  17.513  1.00  0.00    +0.055 A 
ATOM     15  C   UNL     1      49.818  49.300  19.653  1.00  0.00    +0.064 A 
ATOM     16  C   UNL     1      48.457  49.788  17.264  1.00  0.00    +0.047 A 
ATOM     17  C   UNL     1      48.575  48.698  19.403  1.00  0.00    +0.042 A 
ATOM     18  C   UNL     1      47.909  48.933  18.209  1.00  0.00    +0.044 A 
ATOM     19 Cl   UNL     1      50.528  48.861  21.166  1.00  0.00    -0.083 Cl
ATOM     20 Cl   UNL     1      46.406  48.159  17.901  1.00  0.00    -0.084 Cl
BRANCH  14  21
ATOM     21  N   UNL     1      50.168  51.230  16.445  1.00  0.00    -0.398 N 
ATOM     22  H   UNL     1      51.180  51.393  16.526  1.00  0.00    +0.156 HD
ATOM     23  H   UNL     1      49.984  50.796  15.541  1.00  0.00    +0.156 HD
ENDBRANCH  14  21
ENDBRANCH  10  13
ENDBRANCH   1  10
TORSDOF 8
ENDMDL
MODEL 5
REMARK VINA RESULT:    -5.584      2.236      3.382
REMARK INTER + INTRA:          -8.917
REMARK INTER:                  -8.310
REMARK INTRA:                  -0.607
REMARK UNBOUND:                -1.048
REMARK SMILES CC(C)N(CCCO)S(=O)(=O)c1c(N)cc(Cl)cc1Cl
REMARK SMILES IDX 4 1 2 2 1 3 3 4 5 5 6 6 7 7 8 8 9 10 10 11 11 12 12 13 13 14
REMARK SMILES IDX 19 15 15 16 18 17 16 18 20 19 17 20 14 21
REMARK H PARENT 8 9 14 22 14 23
ROOT
ATOM      1  N   UNL     1      46.907  48.061  16.697  1.00  0.00    -0.195 NA
ENDROOT
BRANCH   1   2
ATOM      2  C   UNL     1      46.296  48.675  17.927  1.00  0.00    +0.067 C 
ATOM      3  C   UNL     1      45.178  49.637  17.537  1.00  0.00    +0.025 C 
ATOM      4  C   UNL     1      45.841  47.645  18.956  1.00  0.00    +0.025 C 
ENDBRANCH   1   2
BRANCH   1   5
ATOM      5  C   UNL     1      46.150  48.406  15.457  1.00  0.00    +0.105 C 
BRANCH   5   6
ATOM      6  C   UNL     1      45.675  47.122  14.786  1.00  0.00    +0.045 C 
BRANCH   6   7
ATOM      7  C   UNL     1      44.782  46.312  15.712  1.00  0.00    +0.157 C 
BRANCH   7   8
ATOM      8  O   UNL     1      43.553  47.005  15.880  1.00  0.00    -0.396 OA
ATOM      9  H   UNL     1      43.309  46.940  16.820  1.00  0.00    +0.210 HD
ENDBRANCH   7   8
ENDBRANCH   6   7
ENDBRANCH   5   6
ENDBRANCH   1   5
BRANCH   1  10
ATOM     10  S   UNL     1      48.618  48.071  16.546  1.00  0.00    +0.246 S 
ATOM     11  O   UNL     1      49.113  46.894  17.224  1.00  0.00    -0.207 OA
ATOM     12  O   UNL     1      48.942  48.292  15.150  1.00  0.00    -0.207 OA
BRANCH  10  13
ATOM     13  C   UNL     1      49.063  49.569  17.407  1.00  0.00    +0.124 A 
ATOM     14  C   UNL     1      49.657  49.450  18.687  1.00  0.00    +0.055 A 
ATOM     15  C   UNL     1      48.820  50.846  16.876  1.00  0.00    +0.064 A 
ATOM     16  C   UNL     1      50.110  50.606  19.341  1.00  0.00    +0.047 A 
ATOM     17  C   UNL     1      49.230  51.988  17.582  1.00  0.00    +0.042 A 
ATOM     18  C   UNL     1      49.883  51.863  18.800  1.00  0.00    +0.044 A 
ATOM     19 Cl   UNL     1      48.067  51.183  15.358  1.00  0.00    -0.083 Cl
ATOM     20 Cl   UNL     1      50.413  53.269  19.634  1.00  0.00    -0.084 Cl
BRANCH  14  21
ATOM     21  N   UNL     1      50.019  48.225  19.292  1.00  0.00    -0.398 N 
ATOM     22  H   UNL     1      49.806  47.420  18.689  1.00  0.00    +0.156 HD
ATOM     23  H   UNL     1      51.010  48.198  19.526  1.00  0.00    +0.156 HD
ENDBRANCH  14  21
ENDBRANCH  10  13
ENDBRANCH   1  10
TORSDOF 8
ENDMDL
