MODEL 1
REMARK VINA RESULT:    -7.120      0.000      0.000
REMARK INTER + INTRA:         -10.251
REMARK INTER:                  -9.410
REMARK INTRA:                  -0.841
REMARK UNBOUND:                -0.841
REMARK SMILES C[C@H](Cc1ccco1)NS(=O)(=O)c1cccc(N)c1
REMARK SMILES IDX 10 1 11 2 12 3 9 4 2 6 1 7 3 8 4 9 5 10 8 11 6 12 7 13 13 14
REMARK SMILES IDX 14 15 19 16 15 17 17 18 16 19 18 20
REMARK H PARENT 9 5 18 21 18 22
ROOT
ATOM      1  S   UNL     1      50.801  53.112  18.744  1.00  0.00    +0.240 S 
ATOM      2  O   UNL     1      52.196  53.166  18.372  1.00  0.00    -0.207 OA
ATOM      3  O   UNL     1      49.785  53.811  17.986  1.00  0.00    -0.207 OA
ENDROOT
BRANCH   1   4
ATOM      4  N   UNL     1      50.656  53.657  20.319  1.00  0.00    -0.208 NA
ATOM      5  H   UNL     1      49.699  53.793  20.639  1.00  0.00    +0.141 HD
BRANCH   4   6
ATOM      6  C   UNL     1      51.771  54.357  20.980  1.00  0.00    +0.074 C 
ATOM      7  C   UNL     1      51.559  54.213  22.489  1.00  0.00    +0.026 C 
BRANCH   6   8
ATOM      8  C   UNL     1      51.802  55.828  20.532  1.00  0.00    +0.095 C 
BRANCH   8   9
ATOM      9  C   UNL     1      50.552  56.562  20.863  1.00  0.00    +0.105 A 
ATOM     10  C   UNL     1      50.247  57.545  21.782  1.00  0.00    +0.045 A 
ATOM     11  O   UNL     1      49.440  56.232  20.147  1.00  0.00    -0.469 OA
ATOM     12  C   UNL     1      48.871  57.833  21.614  1.00  0.00    +0.042 A 
ATOM     13  C   UNL     1      48.425  57.006  20.610  1.00  0.00    +0.195 A 
ENDBRANCH   8   9
ENDBRANCH   6   8
ENDBRANCH   4   6
ENDBRANCH   1   4
BRANCH   1  14
ATOM     14  C   UNL     1      50.300  51.420  18.892  1.00  0.00    +0.084 A 
ATOM     15  C   UNL     1      49.220  50.957  18.137  1.00  0.00    +0.022 A 
ATOM     16  C   UNL     1      51.016  50.555  19.727  1.00  0.00    +0.047 A 
ATOM     17  C   UNL     1      48.855  49.617  18.226  1.00  0.00    +0.004 A 
ATOM     18  C   UNL     1      50.614  49.226  19.863  1.00  0.00    +0.033 A 
ATOM     19  C   UNL     1      49.561  48.756  19.071  1.00  0.00    +0.025 A 
BRANCH  18  20
ATOM     20  N   UNL     1      51.390  48.329  20.605  1.00  0.00    -0.399 N 
ATOM     21  H   UNL     1      51.844  47.610  20.050  1.00  0.00    +0.156 HD
ATOM     22  H   UNL     1      50.924  47.952  21.424  1.00  0.00    +0.156 HD
ENDBRANCH  18  20
ENDBRANCH   1  14
TORSDOF 6
ENDMDL
MODEL 2
REMARK VINA RESULT:    -7.085      1.938      6.523
REMARK INTER + INTRA:         -10.204
REMARK INTER:                  -9.276
REMARK INTRA:                  -0.928
REMARK UNBOUND:                -0.841
REMARK SMILES C[C@H](Cc1ccco1)NS(=O)(=O)c1cccc(N)c1
REMARK SMILES IDX 10 1 11 2 12 3 9 4 2 6 1 7 3 8 4 9 5 10 8 11 6 12 7 13 13 14
REMARK SMILES IDX 14 15 19 16 15 17 17 18 16 19 18 20
REMARK H PARENT 9 5 18 21 18 22
ROOT
ATOM      1  S   UNL     1      51.598  53.742  19.923  1.00  0.00    +0.240 S 
ATOM      2  O   UNL     1      52.411  53.977  18.752  1.00  0.00    -0.207 OA
ATOM      3  O   UNL     1      52.092  52.985  21.053  1.00  0.00    -0.207 OA
ENDROOT
BRANCH   1   4
ATOM      4  N   UNL     1      50.190  52.980  19.439  1.00  0.00    -0.208 NA
ATOM      5  H   UNL     1      49.734  52.423  20.160  1.00  0.00    +0.141 HD
BRANCH   4   6
ATOM      6  C   UNL     1      49.928  52.712  18.014  1.00  0.00    +0.074 C 
ATOM      7  C   UNL     1      48.764  53.614  17.595  1.00  0.00    +0.026 C 
BRANCH   6   8
ATOM      8  C   UNL     1      49.614  51.220  17.812  1.00  0.00    +0.095 C 
BRANCH   8   9
ATOM      9  C   UNL     1      50.303  50.344  18.796  1.00  0.00    +0.105 A 
ATOM     10  C   UNL     1      49.857  49.396  19.693  1.00  0.00    +0.045 A 
ATOM     11  O   UNL     1      51.658  50.463  18.878  1.00  0.00    -0.469 OA
ATOM     12  C   UNL     1      51.007  48.906  20.358  1.00  0.00    +0.042 A 
ATOM     13  C   UNL     1      52.076  49.589  19.829  1.00  0.00    +0.195 A 
ENDBRANCH   8   9
ENDBRANCH   6   8
ENDBRANCH   4   6
ENDBRANCH   1   4
BRANCH   1  14
ATOM     14  C   UNL     1      50.989  55.289  20.531  1.00  0.00    +0.084 A 
ATOM     15  C   UNL     1      49.613  55.533  20.525  1.00  0.00    +0.022 A 
ATOM     16  C   UNL     1      51.883  56.233  21.049  1.00  0.00    +0.047 A 
ATOM     17  C   UNL     1      49.135  56.734  21.041  1.00  0.00    +0.004 A 
ATOM     18  C   UNL     1      51.410  57.461  21.510  1.00  0.00    +0.033 A 
ATOM     19  C   UNL     1      50.029  57.682  21.546  1.00  0.00    +0.025 A 
BRANCH  18  20
ATOM     20  N   UNL     1      52.282  58.361  22.132  1.00  0.00    -0.399 N 
ATOM     21  H   UNL     1      51.900  58.809  22.960  1.00  0.00    +0.156 HD
ATOM     22  H   UNL     1      52.722  59.022  21.500  1.00  0.00    +0.156 HD
ENDBRANCH  18  20
ENDBRANCH   1  14
TORSDOF 6
ENDMDL
MODEL 3
REMARK VINA RESULT:    -7.073      2.705      4.171
REMARK INTER + INTRA:         -10.188
REMARK INTER:                  -8.907
REMARK INTRA:                  -1.281
REMARK UNBOUND:                -0.841
REMARK SMILES C[C@H](Cc1ccco1)NS(=O)(=O)c1cccc(N)c1
REMARK SMILES IDX 10 1 11 2 12 3 9 4 2 6 1 7 3 8 4 9 5 10 8 11 6 12 7 13 13 14
REMARK SMILES IDX 14 15 19 16 15 17 17 18 16 19 18 20
REMARK H PARENT 9 5 18 21 18 22
ROOT
ATOM      1  S   UNL     1      51.904  56.164  21.076  1.00  0.00    +0.240 S 
ATOM      2  O   UNL     1      52.723  56.467  22.227  1.00  0.00    -0.207 OA
ATOM      3  O   UNL     1      52.044  56.887  19.831  1.00  0.00    -0.207 OA
ENDROOT
BRANCH   1   4
ATOM      4  N   UNL     1      50.299  56.320  21.520  1.00  0.00    -0.208 NA
ATOM      5  H   UNL     1      49.868  55.468  21.876  1.00  0.00    +0.141 HD
BRANCH   4   6
ATOM      6  C   UNL     1      49.466  57.404  20.971  1.00  0.00    +0.074 C 
ATOM      7  C   UNL     1      49.120  58.336  22.134  1.00  0.00    +0.026 C 
BRANCH   6   8
ATOM      8  C   UNL     1      48.213  56.812  20.304  1.00  0.00    +0.095 C 
BRANCH   8   9
ATOM      9  C   UNL     1      48.525  55.706  19.361  1.00  0.00    +0.105 A 
ATOM     10  C   UNL     1      48.724  55.652  17.998  1.00  0.00    +0.045 A 
ATOM     11  O   UNL     1      48.642  54.459  19.899  1.00  0.00    -0.469 OA
ATOM     12  C   UNL     1      48.981  54.295  17.686  1.00  0.00    +0.042 A 
ATOM     13  C   UNL     1      48.918  53.610  18.876  1.00  0.00    +0.195 A 
ENDBRANCH   8   9
ENDBRANCH   6   8
ENDBRANCH   4   6
ENDBRANCH   1   4
BRANCH   1  14
ATOM     14  C   UNL     1      52.020  54.434  20.716  1.00  0.00    +0.084 A 
ATOM     15  C   UNL     1      51.650  53.505  21.691  1.00  0.00    +0.022 A 
ATOM     16  C   UNL     1      52.438  54.016  19.448  1.00  0.00    +0.047 A 
ATOM     17  C   UNL     1      51.704  52.147  21.390  1.00  0.00    +0.004 A 
ATOM     18  C   UNL     1      52.551  52.654  19.164  1.00  0.00    +0.033 A 
ATOM     19  C   UNL     1      52.135  51.729  20.128  1.00  0.00    +0.025 A 
BRANCH  18  20
ATOM     20  N   UNL     1      52.858  52.230  17.868  1.00  0.00    -0.399 N 
ATOM     21  H   UNL     1      52.046  52.038  17.287  1.00  0.00    +0.156 HD
ATOM     22  H   UNL     1      53.551  51.489  17.824  1.00  0.00    +0.156 HD
ENDBRANCH  18  20
ENDBRANCH   1  14
TORSDOF 6
ENDMDL
MODEL 4
REMARK VINA RESULT:    -6.982      1.738      2.339
REMARK INTER + INTRA:         -10.068
REMARK INTER:                  -9.221
REMARK INTRA:                  -0.847
REMARK UNBOUND:                -0.841
REMARK SMILES C[C@H](Cc1ccco1)NS(=O)(=O)c1cccc(N)c1
REMARK SMILES IDX 10 1 11 2 12 3 9 4 2 6 1 7 3 8 4 9 5 10 8 11 6 12 7 13 13 14
REMARK SMILES IDX 14 15 19 16 15 17 17 18 16 19 18 20
REMARK H PARENT 9 5 18 21 18 22
ROOT
ATOM      1  S   UNL     1      50.434  53.732  18.766  1.00  0.00    +0.240 S 
ATOM      2  O   UNL     1      51.806  53.493  18.384  1.00  0.00    -0.207 OA
ATOM      3  O   UNL     1      49.776  54.992  18.489  1.00  0.00    -0.207 OA
ENDROOT
BRANCH   1   4
ATOM      4  N   UNL     1      50.299  53.496  20.416  1.00  0.00    -0.208 NA
ATOM      5  H   UNL     1      49.490  53.939  20.848  1.00  0.00    +0.141 HD
BRANCH   4   6
ATOM      6  C   UNL     1      51.479  53.146  21.227  1.00  0.00    +0.074 C 
ATOM      7  C   UNL     1      51.280  51.707  21.709  1.00  0.00    +0.026 C 
BRANCH   6   8
ATOM      8  C   UNL     1      51.624  54.138  22.393  1.00  0.00    +0.095 C 
BRANCH   8   9
ATOM      9  C   UNL     1      51.680  55.555  21.947  1.00  0.00    +0.105 A 
ATOM     10  C   UNL     1      50.999  56.693  22.323  1.00  0.00    +0.045 A 
ATOM     11  O   UNL     1      52.567  55.849  20.954  1.00  0.00    -0.469 OA
ATOM     12  C   UNL     1      51.501  57.743  21.517  1.00  0.00    +0.042 A 
ATOM     13  C   UNL     1      52.451  57.178  20.699  1.00  0.00    +0.195 A 
ENDBRANCH   8   9
ENDBRANCH   6   8
ENDBRANCH   4   6
ENDBRANCH   1   4
BRANCH   1  14
ATOM     14  C   UNL     1      49.414  52.435  18.124  1.00  0.00    +0.084 A 
ATOM     15  C   UNL     1      48.272  52.761  17.390  1.00  0.00    +0.022 A 
ATOM     16  C   UNL     1      49.784  51.100  18.320  1.00  0.00    +0.047 A 
ATOM     17  C   UNL     1      47.495  51.739  16.853  1.00  0.00    +0.004 A 
ATOM     18  C   UNL     1      48.974  50.073  17.835  1.00  0.00    +0.033 A 
ATOM     19  C   UNL     1      47.857  50.404  17.061  1.00  0.00    +0.025 A 
BRANCH  18  20
ATOM     20  N   UNL     1      49.395  48.742  17.928  1.00  0.00    -0.399 N 
ATOM     21  H   UNL     1      48.731  48.067  17.561  1.00  0.00    +0.156 HD
ATOM     22  H   UNL     1      49.752  48.479  18.842  1.00  0.00    +0.156 HD
ENDBRANCH  18  20
ENDBRANCH   1  14
TORSDOF 6
ENDMDL
MODEL 5
REMARK VINA RESULT:    -6.852      2.970      6.456
REMARK INTER + INTRA:          -9.897
REMARK INTER:                  -9.253
REMARK INTRA:                  -0.644
REMARK UNBOUND:                -0.841
REMARK SMILES C[C@H](Cc1ccco1)NS(=O)(=O)c1cccc(N)c1
REMARK SMILES IDX 10 1 11 2 12 3 9 4 2 6 1 7 3 8 4 9 5 10 8 11 6 12 7 13 13 14
REMARK SMILES IDX 14 15 19 16 15 17 17 18 16 19 18 20
REMARK H PARENT 9 5 18 21 18 22
ROOT
ATOM      1  S   UNL     1      51.352  50.978  18.279  1.00  0.00    +0.240 S 
ATOM      2  O   UNL     1      52.708  51.142  17.809  1.00  0.00    -0.207 OA
ATOM      3  O   UNL     1      50.923  49.776  18.962  1.00  0.00    -0.207 OA
ENDROOT
BRANCH   1   4
ATOM      4  N   UNL     1      50.319  51.159  16.975  1.00  0.00    -0.208 NA
ATOM      5  H   UNL     1      50.191  52.119  16.660  1.00  0.00    +0.141 HD
BRANCH   4   6
ATOM      6  C   UNL     1      49.313  50.129  16.662  1.00  0.00    +0.074 C 
ATOM      7  C   UNL     1      49.448  49.809  15.172  1.00  0.00    +0.026 C 
BRANCH   6   8
ATOM      8  C   UNL     1      47.910  50.645  17.024  1.00  0.00    +0.095 C 
BRANCH   8   9
ATOM      9  C   UNL     1      47.040  49.595  17.617  1.00  0.00    +0.105 A 
ATOM     10  C   UNL     1      47.262  48.591  18.536  1.00  0.00    +0.045 A 
ATOM     11  O   UNL     1      45.744  49.565  17.196  1.00  0.00    -0.469 OA
ATOM     12  C   UNL     1      46.029  47.911  18.688  1.00  0.00    +0.042 A 
ATOM     13  C   UNL     1      45.139  48.539  17.850  1.00  0.00    +0.195 A 
ENDBRANCH   8   9
ENDBRANCH   6   8
ENDBRANCH   4   6
ENDBRANCH   1   4
BRANCH   1  14
ATOM     14  C   UNL     1      50.912  52.364  19.291  1.00  0.00    +0.084 A 
ATOM     15  C   UNL     1      49.964  53.278  18.826  1.00  0.00    +0.022 A 
ATOM     16  C   UNL     1      51.484  52.505  20.560  1.00  0.00    +0.047 A 
ATOM     17  C   UNL     1      49.592  54.343  19.640  1.00  0.00    +0.004 A 
ATOM     18  C   UNL     1      51.157  53.605  21.353  1.00  0.00    +0.033 A 
ATOM     19  C   UNL     1      50.174  54.493  20.903  1.00  0.00    +0.025 A 
BRANCH  18  20
ATOM     20  N   UNL     1      51.636  53.694  22.664  1.00  0.00    -0.399 N 
ATOM     21  H   UNL     1      51.377  54.549  23.148  1.00  0.00    +0.156 HD
ATOM     22  H   UNL     1      52.622  53.474  22.765  1.00  0.00    +0.156 HD
ENDBRANCH  18  20
ENDBRANCH   1  14
TORSDOF 6
ENDMDL
