MODEL 1
REMARK VINA RESULT:    -7.311      0.000      0.000
REMARK INTER + INTRA:         -10.958
REMARK INTER:                 -10.516
REMARK INTRA:                  -0.442
REMARK UNBOUND:                -0.442
REMARK SMILES CCC(CC)(NS(=O)(=O)Cc1ccccc1)/C(N)=N/O
REMARK SMILES IDX 3 1 2 2 1 3 4 4 5 5 17 6 19 7 18 8 20 11 6 13 7 15 8 16 9 17
REMARK SMILES IDX 10 18 11 19 12 20 16 21 13 22 15 23 14 24
REMARK H PARENT 18 9 18 10 20 12 6 14
ROOT
ATOM      1  C   UNL     1      50.255  51.395  18.035  1.00  0.00    +0.093 C 
ENDROOT
BRANCH   1   2
ATOM      2  C   UNL     1      50.461  50.736  19.419  1.00  0.00    +0.028 C 
ATOM      3  C   UNL     1      49.923  49.312  19.535  1.00  0.00    +0.006 C 
ENDBRANCH   1   2
BRANCH   1   4
ATOM      4  C   UNL     1      48.771  51.283  17.561  1.00  0.00    +0.028 C 
ATOM      5  C   UNL     1      48.111  52.596  17.155  1.00  0.00    +0.006 C 
ENDBRANCH   1   4
BRANCH   1   6
ATOM      6  C   UNL     1      51.187  50.786  16.923  1.00  0.00    +0.160 C 
ATOM      7  N   UNL     1      50.639  50.311  15.837  1.00  0.00    -0.074 NA
ATOM      8  N   UNL     1      52.555  50.823  17.083  1.00  0.00    -0.383 N 
ATOM      9  H   UNL     1      52.883  51.731  17.429  1.00  0.00    +0.158 HD
ATOM     10  H   UNL     1      52.997  50.616  16.190  1.00  0.00    +0.158 HD
BRANCH   7  11
ATOM     11  O   UNL     1      51.618  49.860  14.934  1.00  0.00    -0.409 OA
ATOM     12  H   UNL     1      51.156  49.134  14.476  1.00  0.00    +0.330 HD
ENDBRANCH   7  11
ENDBRANCH   1   6
BRANCH   1  13
ATOM     13  N   UNL     1      50.573  52.858  18.075  1.00  0.00    -0.201 NA
ATOM     14  H   UNL     1      50.728  53.266  17.149  1.00  0.00    +0.142 HD
BRANCH  13  15
ATOM     15  S   UNL     1      51.581  53.579  19.192  1.00  0.00    +0.216 S 
ATOM     16  O   UNL     1      51.868  54.894  18.658  1.00  0.00    -0.212 OA
ATOM     17  O   UNL     1      52.671  52.676  19.499  1.00  0.00    -0.212 OA
BRANCH  15  18
ATOM     18  C   UNL     1      50.568  53.763  20.671  1.00  0.00    +0.189 C 
BRANCH  18  19
ATOM     19  C   UNL     1      49.827  55.075  20.690  1.00  0.00    -0.032 A 
ATOM     20  C   UNL     1      48.639  55.226  19.960  1.00  0.00    +0.005 A 
ATOM     21  C   UNL     1      50.281  56.152  21.464  1.00  0.00    +0.005 A 
ATOM     22  C   UNL     1      47.936  56.432  19.985  1.00  0.00    +0.000 A 
ATOM     23  C   UNL     1      49.579  57.359  21.487  1.00  0.00    +0.000 A 
ATOM     24  C   UNL     1      48.407  57.499  20.747  1.00  0.00    +0.000 A 
ENDBRANCH  18  19
ENDBRANCH  15  18
ENDBRANCH  13  15
ENDBRANCH   1  13
TORSDOF 8
ENDMDL
MODEL 2
REMARK VINA RESULT:    -7.030      3.214      6.252
REMARK INTER + INTRA:         -10.554
REMARK INTER:                 -10.117
REMARK INTRA:                  -0.437
REMARK UNBOUND:                -0.442
REMARK SMILES CCC(CC)(NS(=O)(=O)Cc1ccccc1)/C(N)=N/O
REMARK SMILES IDX 3 1 2 2 1 3 4 4 5 5 17 6 19 7 18 8 20 11 6 13 7 15 8 16 9 17
REMARK SMILES IDX 10 18 11 19 12 20 16 21 13 22 15 23 14 24
REMARK H PARENT 18 9 18 10 20 12 6 14
ROOT
ATOM      1  C   UNL     1      51.338  51.725  19.544  1.00  0.00    +0.093 C 
ENDROOT
BRANCH   1   2
ATOM      2  C   UNL     1      52.358  52.184  18.477  1.00  0.00    +0.028 C 
ATOM      3  C   UNL     1      53.114  53.464  18.825  1.00  0.00    +0.006 C 
ENDBRANCH   1   2
BRANCH   1   4
ATOM      4  C   UNL     1      51.230  52.751  20.716  1.00  0.00    +0.028 C 
ATOM      5  C   UNL     1      50.026  53.684  20.664  1.00  0.00    +0.006 C 
ENDBRANCH   1   4
BRANCH   1   6
ATOM      6  C   UNL     1      51.674  50.308  20.142  1.00  0.00    +0.160 C 
ATOM      7  N   UNL     1      52.624  49.604  19.587  1.00  0.00    -0.074 NA
ATOM      8  N   UNL     1      51.014  49.868  21.268  1.00  0.00    -0.383 N 
ATOM      9  H   UNL     1      50.934  50.597  21.984  1.00  0.00    +0.158 HD
ATOM     10  H   UNL     1      51.511  49.065  21.648  1.00  0.00    +0.158 HD
BRANCH   7  11
ATOM     11  O   UNL     1      52.825  48.397  20.278  1.00  0.00    -0.409 OA
ATOM     12  H   UNL     1      53.410  48.672  21.007  1.00  0.00    +0.330 HD
ENDBRANCH   7  11
ENDBRANCH   1   6
BRANCH   1  13
ATOM     13  N   UNL     1      49.961  51.604  18.965  1.00  0.00    -0.201 NA
ATOM     14  H   UNL     1      49.217  51.746  19.653  1.00  0.00    +0.142 HD
BRANCH  13  15
ATOM     15  S   UNL     1      49.498  50.450  17.853  1.00  0.00    +0.216 S 
ATOM     16  O   UNL     1      49.234  49.254  18.627  1.00  0.00    -0.212 OA
ATOM     17  O   UNL     1      50.470  50.409  16.779  1.00  0.00    -0.212 OA
BRANCH  15  18
ATOM     18  C   UNL     1      47.941  51.061  17.180  1.00  0.00    +0.189 C 
BRANCH  18  19
ATOM     19  C   UNL     1      47.041  49.939  16.731  1.00  0.00    -0.032 A 
ATOM     20  C   UNL     1      45.900  49.607  17.476  1.00  0.00    +0.005 A 
ATOM     21  C   UNL     1      47.297  49.235  15.546  1.00  0.00    +0.005 A 
ATOM     22  C   UNL     1      45.050  48.582  17.058  1.00  0.00    +0.000 A 
ATOM     23  C   UNL     1      46.448  48.208  15.130  1.00  0.00    +0.000 A 
ATOM     24  C   UNL     1      45.325  47.881  15.886  1.00  0.00    +0.000 A 
ENDBRANCH  18  19
ENDBRANCH  15  18
ENDBRANCH  13  15
ENDBRANCH   1  13
TORSDOF 8
ENDMDL
MODEL 3
REMARK VINA RESULT:    -6.689      2.584      3.053
REMARK INTER + INTRA:         -10.064
REMARK INTER:                 -10.288
REMARK INTRA:                   0.224
REMARK UNBOUND:                -0.442
REMARK SMILES CCC(CC)(NS(=O)(=O)Cc1ccccc1)/C(N)=N/O
REMARK SMILES IDX 3 1 2 2 1 3 4 4 5 5 17 6 19 7 18 8 20 11 6 13 7 15 8 16 9 17
REMARK SMILES IDX 10 18 11 19 12 20 16 21 13 22 15 23 14 24
REMARK H PARENT 18 9 18 10 20 12 6 14
ROOT
ATOM      1  C   UNL     1      51.608  51.358  19.540  1.00  0.00    +0.093 C 
ENDROOT
BRANCH   1   2
ATOM      2  C   UNL     1      50.116  51.662  19.268  1.00  0.00    +0.028 C 
ATOM      3  C   UNL     1      49.594  51.151  17.928  1.00  0.00    +0.006 C 
ENDBRANCH   1   2
BRANCH   1   4
ATOM      4  C   UNL     1      52.484  51.598  18.270  1.00  0.00    +0.028 C 
ATOM      5  C   UNL     1      53.254  52.914  18.241  1.00  0.00    +0.006 C 
ENDBRANCH   1   4
BRANCH   1   6
ATOM      6  C   UNL     1      51.850  49.889  20.050  1.00  0.00    +0.160 C 
ATOM      7  N   UNL     1      50.878  49.274  20.670  1.00  0.00    -0.074 NA
ATOM      8  N   UNL     1      53.045  49.260  19.780  1.00  0.00    -0.383 N 
ATOM      9  H   UNL     1      53.352  49.404  18.812  1.00  0.00    +0.158 HD
ATOM     10  H   UNL     1      52.942  48.264  19.963  1.00  0.00    +0.158 HD
BRANCH   7  11
ATOM     11  O   UNL     1      51.248  47.960  21.006  1.00  0.00    -0.409 OA
ATOM     12  H   UNL     1      50.453  47.634  21.467  1.00  0.00    +0.330 HD
ENDBRANCH   7  11
ENDBRANCH   1   6
BRANCH   1  13
ATOM     13  N   UNL     1      52.161  52.254  20.606  1.00  0.00    -0.201 NA
ATOM     14  H   UNL     1      52.760  51.765  21.277  1.00  0.00    +0.142 HD
BRANCH  13  15
ATOM     15  S   UNL     1      51.297  53.454  21.379  1.00  0.00    +0.216 S 
ATOM     16  O   UNL     1      52.081  53.799  22.547  1.00  0.00    -0.212 OA
ATOM     17  O   UNL     1      49.924  53.021  21.539  1.00  0.00    -0.212 OA
BRANCH  15  18
ATOM     18  C   UNL     1      51.320  54.845  20.233  1.00  0.00    +0.189 C 
BRANCH  18  19
ATOM     19  C   UNL     1      50.271  55.872  20.570  1.00  0.00    -0.032 A 
ATOM     20  C   UNL     1      49.016  55.833  19.945  1.00  0.00    +0.005 A 
ATOM     21  C   UNL     1      50.507  56.858  21.539  1.00  0.00    +0.005 A 
ATOM     22  C   UNL     1      48.032  56.770  20.265  1.00  0.00    +0.000 A 
ATOM     23  C   UNL     1      49.523  57.795  21.857  1.00  0.00    +0.000 A 
ATOM     24  C   UNL     1      48.286  57.752  21.219  1.00  0.00    +0.000 A 
ENDBRANCH  18  19
ENDBRANCH  15  18
ENDBRANCH  13  15
ENDBRANCH   1  13
TORSDOF 8
ENDMDL
MODEL 4
REMARK VINA RESULT:    -6.673      3.269      6.237
REMARK INTER + INTRA:         -10.040
REMARK INTER:                  -9.728
REMARK INTRA:                  -0.312
REMARK UNBOUND:                -0.442
REMARK SMILES CCC(CC)(NS(=O)(=O)Cc1ccccc1)/C(N)=N/O
REMARK SMILES IDX 3 1 2 2 1 3 4 4 5 5 17 6 19 7 18 8 20 11 6 13 7 15 8 16 9 17
REMARK SMILES IDX 10 18 11 19 12 20 16 21 13 22 15 23 14 24
REMARK H PARENT 18 9 18 10 20 12 6 14
ROOT
ATOM      1  C   UNL     1      50.666  51.993  19.144  1.00  0.00    +0.093 C 
ENDROOT
BRANCH   1   2
ATOM      2  C   UNL     1      50.436  53.307  18.360  1.00  0.00    +0.028 C 
ATOM      3  C   UNL     1      49.267  54.152  18.859  1.00  0.00    +0.006 C 
ENDBRANCH   1   2
BRANCH   1   4
ATOM      4  C   UNL     1      50.719  52.245  20.684  1.00  0.00    +0.028 C 
ATOM      5  C   UNL     1      51.888  53.095  21.170  1.00  0.00    +0.006 C 
ENDBRANCH   1   4
BRANCH   1   6
ATOM      6  C   UNL     1      51.978  51.243  18.709  1.00  0.00    +0.160 C 
ATOM      7  N   UNL     1      52.260  50.097  19.269  1.00  0.00    -0.074 NA
ATOM      8  N   UNL     1      52.766  51.769  17.709  1.00  0.00    -0.383 N 
ATOM      9  H   UNL     1      52.214  52.106  16.913  1.00  0.00    +0.158 HD
ATOM     10  H   UNL     1      53.421  51.056  17.395  1.00  0.00    +0.158 HD
BRANCH   7  11
ATOM     11  O   UNL     1      53.433  49.545  18.725  1.00  0.00    -0.409 OA
ATOM     12  H   UNL     1      53.586  50.112  17.948  1.00  0.00    +0.330 HD
ENDBRANCH   7  11
ENDBRANCH   1   6
BRANCH   1  13
ATOM     13  N   UNL     1      49.549  51.021  18.917  1.00  0.00    -0.201 NA
ATOM     14  H   UNL     1      49.606  50.189  19.511  1.00  0.00    +0.142 HD
BRANCH  13  15
ATOM     15  S   UNL     1      48.937  50.612  17.420  1.00  0.00    +0.216 S 
ATOM     16  O   UNL     1      50.014  50.861  16.484  1.00  0.00    -0.212 OA
ATOM     17  O   UNL     1      47.659  51.271  17.234  1.00  0.00    -0.212 OA
BRANCH  15  18
ATOM     18  C   UNL     1      48.647  48.836  17.513  1.00  0.00    +0.189 C 
BRANCH  18  19
ATOM     19  C   UNL     1      47.180  48.498  17.451  1.00  0.00    -0.032 A 
ATOM     20  C   UNL     1      46.507  48.491  16.220  1.00  0.00    +0.005 A 
ATOM     21  C   UNL     1      46.469  48.145  18.607  1.00  0.00    +0.005 A 
ATOM     22  C   UNL     1      45.153  48.162  16.151  1.00  0.00    +0.000 A 
ATOM     23  C   UNL     1      45.113  47.817  18.537  1.00  0.00    +0.000 A 
ATOM     24  C   UNL     1      44.455  47.827  17.310  1.00  0.00    +0.000 A 
ENDBRANCH  18  19
ENDBRANCH  15  18
ENDBRANCH  13  15
ENDBRANCH   1  13
TORSDOF 8
ENDMDL
MODEL 5
REMARK VINA RESULT:    -6.400      2.240      3.228
REMARK INTER + INTRA:          -9.648
REMARK INTER:                  -9.875
REMARK INTRA:                   0.227
REMARK UNBOUND:                -0.442
REMARK SMILES CCC(CC)(NS(=O)(=O)Cc1ccccc1)/C(N)=N/O
REMARK SMILES IDX 3 1 2 2 1 3 4 4 5 5 17 6 19 7 18 8 20 11 6 13 7 15 8 16 9 17
REMARK SMILES IDX 10 18 11 19 12 20 16 21 13 22 15 23 14 24
REMARK H PARENT 18 9 18 10 20 12 6 14
ROOT
ATOM      1  C   UNL     1      51.420  52.027  20.016  1.00  0.00    +0.093 C 
ENDROOT
BRANCH   1   2
ATOM      2  C   UNL     1      52.473  52.547  19.009  1.00  0.00    +0.028 C 
ATOM      3  C   UNL     1      52.660  51.672  17.772  1.00  0.00    +0.006 C 
ENDBRANCH   1   2
BRANCH   1   4
ATOM      4  C   UNL     1      51.958  52.067  21.481  1.00  0.00    +0.028 C 
ATOM      5  C   UNL     1      51.589  53.310  22.282  1.00  0.00    +0.006 C 
ENDBRANCH   1   4
BRANCH   1   6
ATOM      6  C   UNL     1      50.937  50.565  19.695  1.00  0.00    +0.160 C 
ATOM      7  N   UNL     1      51.612  49.560  20.186  1.00  0.00    -0.074 NA
ATOM      8  N   UNL     1      49.785  50.371  18.964  1.00  0.00    -0.383 N 
ATOM      9  H   UNL     1      49.023  50.988  19.264  1.00  0.00    +0.158 HD
ATOM     10  H   UNL     1      49.496  49.399  19.056  1.00  0.00    +0.158 HD
BRANCH   7  11
ATOM     11  O   UNL     1      51.011  48.335  19.845  1.00  0.00    -0.409 OA
ATOM     12  H   UNL     1      50.081  48.486  20.093  1.00  0.00    +0.330 HD
ENDBRANCH   7  11
ENDBRANCH   1   6
BRANCH   1  13
ATOM     13  N   UNL     1      50.186  52.875  19.999  1.00  0.00    -0.201 NA
ATOM     14  H   UNL     1      49.338  52.366  20.266  1.00  0.00    +0.142 HD
BRANCH  13  15
ATOM     15  S   UNL     1      49.827  54.005  18.825  1.00  0.00    +0.216 S 
ATOM     16  O   UNL     1      49.552  53.239  17.627  1.00  0.00    -0.212 OA
ATOM     17  O   UNL     1      50.864  55.016  18.808  1.00  0.00    -0.212 OA
BRANCH  15  18
ATOM     18  C   UNL     1      48.297  54.776  19.384  1.00  0.00    +0.189 C 
BRANCH  18  19
ATOM     19  C   UNL     1      48.554  56.013  20.204  1.00  0.00    -0.032 A 
ATOM     20  C   UNL     1      47.646  57.082  20.177  1.00  0.00    +0.005 A 
ATOM     21  C   UNL     1      49.677  56.108  21.040  1.00  0.00    +0.005 A 
ATOM     22  C   UNL     1      47.867  58.224  20.948  1.00  0.00    +0.000 A 
ATOM     23  C   UNL     1      49.898  57.252  21.809  1.00  0.00    +0.000 A 
ATOM     24  C   UNL     1      48.994  58.310  21.762  1.00  0.00    +0.000 A 
ENDBRANCH  18  19
ENDBRANCH  15  18
ENDBRANCH  13  15
ENDBRANCH   1  13
TORSDOF 8
ENDMDL
