MODEL 1
REMARK VINA RESULT:    -8.629      0.000      0.000
REMARK INTER + INTRA:         -11.320
REMARK INTER:                 -11.404
REMARK INTRA:                   0.084
REMARK UNBOUND:                 0.084
REMARK SMILES C[NH+]1CCC(NC(=O)CCC2CCCC2)(/C(N)=N/O)CC1
REMARK SMILES IDX 1 1 2 2 3 3 4 4 5 5 20 6 21 7 16 9 18 10 17 11 19 14 6 16
REMARK SMILES IDX 7 17 8 18 9 20 10 21 11 22 12 23 15 24 13 25 14 26
REMARK H PARENT 2 8 17 12 17 13 19 15 6 19
ROOT
ATOM      1  C   UNL     1      51.920  55.714  21.214  1.00  0.00    +0.332 C 
ATOM      2  N   UNL     1      51.385  54.862  20.093  1.00  0.00    -0.337 N 
ATOM      3  C   UNL     1      52.473  54.013  19.471  1.00  0.00    +0.264 C 
ATOM      4  C   UNL     1      51.846  52.845  18.738  1.00  0.00    +0.098 C 
ATOM      5  C   UNL     1      51.161  51.873  19.734  1.00  0.00    +0.111 C 
ATOM      6  C   UNL     1      50.516  52.678  20.898  1.00  0.00    +0.098 C 
ATOM      7  C   UNL     1      50.144  54.087  20.479  1.00  0.00    +0.264 C 
ATOM      8  H   UNL     1      51.085  55.525  19.362  1.00  0.00    +0.347 HD
ENDROOT
BRANCH   5   9
ATOM      9  C   UNL     1      52.176  50.834  20.322  1.00  0.00    +0.165 C 
ATOM     10  N   UNL     1      52.795  50.039  19.497  1.00  0.00    -0.073 NA
ATOM     11  N   UNL     1      52.416  50.836  21.676  1.00  0.00    -0.382 N 
ATOM     12  H   UNL     1      52.455  51.773  22.094  1.00  0.00    +0.158 HD
ATOM     13  H   UNL     1      53.267  50.314  21.885  1.00  0.00    +0.158 HD
BRANCH  10  14
ATOM     14  O   UNL     1      53.697  49.215  20.192  1.00  0.00    -0.409 OA
ATOM     15  H   UNL     1      54.551  49.415  19.764  1.00  0.00    +0.330 HD
ENDBRANCH  10  14
ENDBRANCH   5   9
BRANCH   5  16
ATOM     16  N   UNL     1      50.116  51.055  19.081  1.00  0.00    -0.343 N 
ATOM     17  C   UNL     1      49.321  51.538  18.054  1.00  0.00    +0.220 C 
ATOM     18  O   UNL     1      49.383  52.697  17.660  1.00  0.00    -0.275 OA
ATOM     19  H   UNL     1      50.318  50.062  18.998  1.00  0.00    +0.164 HD
BRANCH  17  20
ATOM     20  C   UNL     1      48.422  50.476  17.449  1.00  0.00    +0.100 C 
BRANCH  20  21
ATOM     21  C   UNL     1      48.108  49.326  18.406  1.00  0.00    +0.013 C 
BRANCH  21  22
ATOM     22  C   UNL     1      46.896  48.486  17.993  1.00  0.00    -0.011 C 
ATOM     23  C   UNL     1      46.256  47.766  19.179  1.00  0.00    +0.003 C 
ATOM     24  C   UNL     1      45.723  49.293  17.439  1.00  0.00    +0.003 C 
ATOM     25  C   UNL     1      44.867  47.378  18.685  1.00  0.00    +0.000 C 
ATOM     26  C   UNL     1      44.538  48.338  17.541  1.00  0.00    +0.000 C 
ENDBRANCH  21  22
ENDBRANCH  20  21
ENDBRANCH  17  20
ENDBRANCH   5  16
TORSDOF 6
ENDMDL
MODEL 2
REMARK VINA RESULT:    -8.543      2.306      6.362
REMARK INTER + INTRA:         -11.206
REMARK INTER:                 -11.113
REMARK INTRA:                  -0.093
REMARK UNBOUND:                 0.084
REMARK SMILES C[NH+]1CCC(NC(=O)CCC2CCCC2)(/C(N)=N/O)CC1
REMARK SMILES IDX 1 1 2 2 3 3 4 4 5 5 20 6 21 7 16 9 18 10 17 11 19 14 6 16
REMARK SMILES IDX 7 17 8 18 9 20 10 21 11 22 12 23 15 24 13 25 14 26
REMARK H PARENT 2 8 17 12 17 13 19 15 6 19
ROOT
ATOM      1  C   UNL     1      48.658  48.514  15.640  1.00  0.00    +0.332 C 
ATOM      2  N   UNL     1      48.468  49.223  16.955  1.00  0.00    -0.337 N 
ATOM      3  C   UNL     1      49.196  48.517  18.078  1.00  0.00    +0.264 C 
ATOM      4  C   UNL     1      49.412  49.482  19.226  1.00  0.00    +0.098 C 
ATOM      5  C   UNL     1      50.395  50.610  18.819  1.00  0.00    +0.111 C 
ATOM      6  C   UNL     1      50.170  50.994  17.328  1.00  0.00    +0.098 C 
ATOM      7  C   UNL     1      48.752  50.707  16.874  1.00  0.00    +0.264 C 
ATOM      8  H   UNL     1      47.462  49.142  17.169  1.00  0.00    +0.347 HD
ENDROOT
BRANCH   5   9
ATOM      9  C   UNL     1      51.888  50.183  19.024  1.00  0.00    +0.165 C 
ATOM     10  N   UNL     1      52.222  49.623  20.152  1.00  0.00    -0.073 NA
ATOM     11  N   UNL     1      52.777  50.362  17.991  1.00  0.00    -0.382 N 
ATOM     12  H   UNL     1      52.387  50.163  17.063  1.00  0.00    +0.158 HD
ATOM     13  H   UNL     1      53.622  49.813  18.151  1.00  0.00    +0.158 HD
BRANCH  10  14
ATOM     14  O   UNL     1      53.580  49.263  20.140  1.00  0.00    -0.409 OA
ATOM     15  H   UNL     1      53.812  49.318  19.194  1.00  0.00    +0.330 HD
ENDBRANCH  10  14
ENDBRANCH   5   9
BRANCH   5  16
ATOM     16  N   UNL     1      50.228  51.820  19.654  1.00  0.00    -0.343 N 
ATOM     17  C   UNL     1      50.769  53.047  19.310  1.00  0.00    +0.220 C 
ATOM     18  O   UNL     1      51.480  53.204  18.324  1.00  0.00    -0.275 OA
ATOM     19  H   UNL     1      49.343  51.897  20.150  1.00  0.00    +0.164 HD
BRANCH  17  20
ATOM     20  C   UNL     1      50.345  54.166  20.244  1.00  0.00    +0.100 C 
BRANCH  20  21
ATOM     21  C   UNL     1      49.070  54.881  19.798  1.00  0.00    +0.013 C 
BRANCH  21  22
ATOM     22  C   UNL     1      49.049  56.378  20.124  1.00  0.00    -0.011 C 
ATOM     23  C   UNL     1      47.628  56.918  20.283  1.00  0.00    +0.003 C 
ATOM     24  C   UNL     1      49.683  56.745  21.465  1.00  0.00    +0.003 C 
ATOM     25  C   UNL     1      47.804  58.239  21.025  1.00  0.00    +0.000 C 
ATOM     26  C   UNL     1      49.144  58.142  21.756  1.00  0.00    +0.000 C 
ENDBRANCH  21  22
ENDBRANCH  20  21
ENDBRANCH  17  20
ENDBRANCH   5  16
TORSDOF 6
ENDMDL
MODEL 3
REMARK VINA RESULT:    -7.468      1.440      2.016
REMARK INTER + INTRA:          -9.786
REMARK INTER:                  -9.833
REMARK INTRA:                   0.047
REMARK UNBOUND:                 0.084
REMARK SMILES C[NH+]1CCC(NC(=O)CCC2CCCC2)(/C(N)=N/O)CC1
REMARK SMILES IDX 1 1 2 2 3 3 4 4 5 5 20 6 21 7 16 9 18 10 17 11 19 14 6 16
REMARK SMILES IDX 7 17 8 18 9 20 10 21 11 22 12 23 15 24 13 25 14 26
REMARK H PARENT 2 8 17 12 17 13 19 15 6 19
ROOT
ATOM      1  C   UNL     1      51.417  55.909  22.359  1.00  0.00    +0.332 C 
ATOM      2  N   UNL     1      51.171  55.677  20.891  1.00  0.00    -0.337 N 
ATOM      3  C   UNL     1      52.419  55.182  20.190  1.00  0.00    +0.264 C 
ATOM      4  C   UNL     1      52.031  54.494  18.898  1.00  0.00    +0.098 C 
ATOM      5  C   UNL     1      51.243  53.188  19.184  1.00  0.00    +0.111 C 
ATOM      6  C   UNL     1      50.329  53.386  20.426  1.00  0.00    +0.098 C 
ATOM      7  C   UNL     1      49.941  54.839  20.623  1.00  0.00    +0.264 C 
ATOM      8  H   UNL     1      50.969  56.607  20.495  1.00  0.00    +0.347 HD
ENDROOT
BRANCH   5   9
ATOM      9  C   UNL     1      52.200  51.974  19.432  1.00  0.00    +0.165 C 
ATOM     10  N   UNL     1      52.330  51.527  20.649  1.00  0.00    -0.073 NA
ATOM     11  N   UNL     1      52.825  51.391  18.356  1.00  0.00    -0.382 N 
ATOM     12  H   UNL     1      52.238  51.323  17.517  1.00  0.00    +0.158 HD
ATOM     13  H   UNL     1      53.193  50.475  18.613  1.00  0.00    +0.158 HD
BRANCH  10  14
ATOM     14  O   UNL     1      53.183  50.411  20.676  1.00  0.00    -0.409 OA
ATOM     15  H   UNL     1      53.660  50.520  21.520  1.00  0.00    +0.330 HD
ENDBRANCH  10  14
ENDBRANCH   5   9
BRANCH   5  16
ATOM     16  N   UNL     1      50.406  52.783  18.033  1.00  0.00    -0.343 N 
ATOM     17  C   UNL     1      49.693  51.595  18.009  1.00  0.00    +0.220 C 
ATOM     18  O   UNL     1      49.759  50.766  18.909  1.00  0.00    -0.275 OA
ATOM     19  H   UNL     1      49.942  53.539  17.535  1.00  0.00    +0.164 HD
BRANCH  17  20
ATOM     20  C   UNL     1      48.798  51.465  16.791  1.00  0.00    +0.100 C 
BRANCH  20  21
ATOM     21  C   UNL     1      47.316  51.318  17.137  1.00  0.00    +0.013 C 
BRANCH  21  22
ATOM     22  C   UNL     1      46.754  49.916  16.885  1.00  0.00    -0.011 C 
ATOM     23  C   UNL     1      47.540  49.157  15.816  1.00  0.00    +0.003 C 
ATOM     24  C   UNL     1      46.848  48.970  18.082  1.00  0.00    +0.003 C 
ATOM     25  C   UNL     1      47.151  47.697  16.023  1.00  0.00    +0.000 C 
ATOM     26  C   UNL     1      46.672  47.584  17.470  1.00  0.00    +0.000 C 
ENDBRANCH  21  22
ENDBRANCH  20  21
ENDBRANCH  17  20
ENDBRANCH   5  16
TORSDOF 6
ENDMDL
MODEL 4
REMARK VINA RESULT:    -7.306      1.578      2.155
REMARK INTER + INTRA:          -9.572
REMARK INTER:                 -10.153
REMARK INTRA:                   0.581
REMARK UNBOUND:                 0.084
REMARK SMILES C[NH+]1CCC(NC(=O)CCC2CCCC2)(/C(N)=N/O)CC1
REMARK SMILES IDX 1 1 2 2 3 3 4 4 5 5 20 6 21 7 16 9 18 10 17 11 19 14 6 16
REMARK SMILES IDX 7 17 8 18 9 20 10 21 11 22 12 23 15 24 13 25 14 26
REMARK H PARENT 2 8 17 12 17 13 19 15 6 19
ROOT
ATOM      1  C   UNL     1      50.736  57.508  21.072  1.00  0.00    +0.332 C 
ATOM      2  N   UNL     1      50.924  56.487  19.981  1.00  0.00    -0.337 N 
ATOM      3  C   UNL     1      52.194  55.687  20.182  1.00  0.00    +0.264 C 
ATOM      4  C   UNL     1      52.099  54.388  19.409  1.00  0.00    +0.098 C 
ATOM      5  C   UNL     1      51.002  53.469  20.008  1.00  0.00    +0.111 C 
ATOM      6  C   UNL     1      49.805  54.331  20.502  1.00  0.00    +0.098 C 
ATOM      7  C   UNL     1      49.694  55.640  19.744  1.00  0.00    +0.264 C 
ATOM      8  H   UNL     1      51.061  57.030  19.116  1.00  0.00    +0.347 HD
ENDROOT
BRANCH   5   9
ATOM      9  C   UNL     1      51.549  52.610  21.198  1.00  0.00    +0.165 C 
ATOM     10  N   UNL     1      52.026  51.426  20.939  1.00  0.00    -0.073 NA
ATOM     11  N   UNL     1      51.557  53.155  22.460  1.00  0.00    -0.382 N 
ATOM     12  H   UNL     1      51.807  54.150  22.485  1.00  0.00    +0.158 HD
ATOM     13  H   UNL     1      52.166  52.616  23.075  1.00  0.00    +0.158 HD
BRANCH  10  14
ATOM     14  O   UNL     1      52.514  50.824  22.111  1.00  0.00    -0.409 OA
ATOM     15  H   UNL     1      52.806  51.588  22.644  1.00  0.00    +0.330 HD
ENDBRANCH  10  14
ENDBRANCH   5   9
BRANCH   5  16
ATOM     16  N   UNL     1      50.507  52.482  19.023  1.00  0.00    -0.343 N 
ATOM     17  C   UNL     1      51.335  51.871  18.097  1.00  0.00    +0.220 C 
ATOM     18  O   UNL     1      52.522  52.152  17.983  1.00  0.00    -0.275 OA
ATOM     19  H   UNL     1      49.748  51.884  19.340  1.00  0.00    +0.164 HD
BRANCH  17  20
ATOM     20  C   UNL     1      50.631  50.795  17.290  1.00  0.00    +0.100 C 
BRANCH  20  21
ATOM     21  C   UNL     1      49.180  51.137  16.953  1.00  0.00    +0.013 C 
BRANCH  21  22
ATOM     22  C   UNL     1      48.210  49.962  17.111  1.00  0.00    -0.011 C 
ATOM     23  C   UNL     1      48.365  49.257  18.458  1.00  0.00    +0.003 C 
ATOM     24  C   UNL     1      46.733  50.355  17.124  1.00  0.00    +0.003 C 
ATOM     25  C   UNL     1      47.077  48.458  18.619  1.00  0.00    +0.000 C 
ATOM     26  C   UNL     1      46.036  49.143  17.733  1.00  0.00    +0.000 C 
ENDBRANCH  21  22
ENDBRANCH  20  21
ENDBRANCH  17  20
ENDBRANCH   5  16
TORSDOF 6
ENDMDL
MODEL 5
REMARK VINA RESULT:    -7.226      2.253      3.162
REMARK INTER + INTRA:          -9.465
REMARK INTER:                  -9.378
REMARK INTRA:                  -0.087
REMARK UNBOUND:                 0.084
REMARK SMILES C[NH+]1CCC(NC(=O)CCC2CCCC2)(/C(N)=N/O)CC1
REMARK SMILES IDX 1 1 2 2 3 3 4 4 5 5 20 6 21 7 16 9 18 10 17 11 19 14 6 16
REMARK SMILES IDX 7 17 8 18 9 20 10 21 11 22 12 23 15 24 13 25 14 26
REMARK H PARENT 2 8 17 12 17 13 19 15 6 19
ROOT
ATOM      1  C   UNL     1      52.965  58.143  21.807  1.00  0.00    +0.332 C 
ATOM      2  N   UNL     1      52.220  57.571  20.630  1.00  0.00    -0.337 N 
ATOM      3  C   UNL     1      52.912  56.344  20.076  1.00  0.00    +0.264 C 
ATOM      4  C   UNL     1      51.923  55.526  19.272  1.00  0.00    +0.098 C 
ATOM      5  C   UNL     1      50.825  54.930  20.191  1.00  0.00    +0.111 C 
ATOM      6  C   UNL     1      50.474  55.942  21.319  1.00  0.00    +0.098 C 
ATOM      7  C   UNL     1      50.744  57.376  20.902  1.00  0.00    +0.264 C 
ATOM      8  H   UNL     1      52.275  58.290  19.893  1.00  0.00    +0.347 HD
ENDROOT
BRANCH   5   9
ATOM      9  C   UNL     1      51.278  53.575  20.833  1.00  0.00    +0.165 C 
ATOM     10  N   UNL     1      50.587  53.102  21.832  1.00  0.00    -0.073 NA
ATOM     11  N   UNL     1      52.349  52.908  20.288  1.00  0.00    -0.382 N 
ATOM     12  H   UNL     1      52.387  52.943  19.264  1.00  0.00    +0.158 HD
ATOM     13  H   UNL     1      52.370  51.943  20.617  1.00  0.00    +0.158 HD
BRANCH  10  14
ATOM     14  O   UNL     1      51.105  51.863  22.245  1.00  0.00    -0.409 OA
ATOM     15  H   UNL     1      50.352  51.458  22.716  1.00  0.00    +0.330 HD
ENDBRANCH  10  14
ENDBRANCH   5   9
BRANCH   5  16
ATOM     16  N   UNL     1      49.592  54.603  19.442  1.00  0.00    -0.343 N 
ATOM     17  C   UNL     1      49.557  53.645  18.442  1.00  0.00    +0.220 C 
ATOM     18  O   UNL     1      50.557  53.049  18.061  1.00  0.00    -0.275 OA
ATOM     19  H   UNL     1      48.724  54.664  19.969  1.00  0.00    +0.164 HD
BRANCH  17  20
ATOM     20  C   UNL     1      48.156  53.384  17.919  1.00  0.00    +0.100 C 
BRANCH  20  21
ATOM     21  C   UNL     1      48.133  52.620  16.595  1.00  0.00    +0.013 C 
BRANCH  21  22
ATOM     22  C   UNL     1      48.054  51.098  16.757  1.00  0.00    -0.011 C 
ATOM     23  C   UNL     1      46.709  50.643  17.321  1.00  0.00    +0.003 C 
ATOM     24  C   UNL     1      48.133  50.315  15.447  1.00  0.00    +0.003 C 
ATOM     25  C   UNL     1      46.641  49.156  16.991  1.00  0.00    +0.000 C 
ATOM     26  C   UNL     1      47.585  48.938  15.808  1.00  0.00    +0.000 C 
ENDBRANCH  21  22
ENDBRANCH  20  21
ENDBRANCH  17  20
ENDBRANCH   5  16
TORSDOF 6
ENDMDL
