MODEL 1
REMARK VINA RESULT:    -6.176      0.000      0.000
REMARK INTER + INTRA:          -7.575
REMARK INTER:                  -7.439
REMARK INTRA:                  -0.136
REMARK UNBOUND:                -0.136
REMARK SMILES [NH3+]CC(=O)N1CCC([NH+]2CCC[C@H]2C(=O)[O-])CC1
REMARK SMILES IDX 8 1 7 2 6 3 5 4 18 5 17 6 3 7 4 8 9 9 11 10 12 11 10 12
REMARK SMILES IDX 13 13 14 15 15 16 16 17 2 18 1 19
REMARK H PARENT 9 14 1 20 1 21 1 22
ROOT
ATOM      1  C   UNL     1      50.866  53.843  20.242  1.00  0.00    +0.188 C 
ATOM      2  C   UNL     1      51.180  52.914  21.426  1.00  0.00    +0.086 C 
ATOM      3  C   UNL     1      52.052  51.730  20.965  1.00  0.00    +0.126 C 
ATOM      4  N   UNL     1      52.047  51.671  19.503  1.00  0.00    -0.337 N 
ATOM      5  C   UNL     1      52.671  52.838  18.860  1.00  0.00    +0.126 C 
ATOM      6  C   UNL     1      52.134  54.160  19.453  1.00  0.00    +0.086 C 
ATOM      7  C   UNL     1      51.125  50.798  18.907  1.00  0.00    +0.277 C 
ATOM      8  O   UNL     1      50.754  49.758  19.460  1.00  0.00    -0.268 OA
ENDROOT
BRANCH   1   9
ATOM      9  N   UNL     1      50.006  54.998  20.653  1.00  0.00    -0.325 N 
ATOM     10  C   UNL     1      49.245  57.251  20.273  1.00  0.00    +0.068 C 
ATOM     11  C   UNL     1      48.051  56.313  20.112  1.00  0.00    +0.077 C 
ATOM     12  C   UNL     1      50.489  56.385  20.302  1.00  0.00    +0.263 C 
ATOM     13  C   UNL     1      48.611  54.923  19.880  1.00  0.00    +0.231 C 
ATOM     14  H   UNL     1      49.804  54.970  21.658  1.00  0.00    +0.348 HD
BRANCH  13  15
ATOM     15  C   UNL     1      48.726  54.572  18.342  1.00  0.00    +0.099 C 
ATOM     16  O   UNL     1      48.295  53.439  18.003  1.00  0.00    -0.544 OA
ATOM     17  O   UNL     1      48.951  55.549  17.559  1.00  0.00    -0.544 OA
ENDBRANCH  13  15
ENDBRANCH   1   9
BRANCH   7  18
ATOM     18  C   UNL     1      50.405  51.206  17.615  1.00  0.00    +0.360 C 
BRANCH  18  19
ATOM     19  N   UNL     1      50.997  50.449  16.485  1.00  0.00    -0.350 N 
ATOM     20  H   UNL     1      50.699  49.466  16.509  1.00  0.00    +0.344 HD
ATOM     21  H   UNL     1      50.601  50.814  15.577  1.00  0.00    +0.344 HD
ATOM     22  H   UNL     1      52.009  50.542  16.408  1.00  0.00    +0.344 HD
ENDBRANCH  18  19
ENDBRANCH   7  18
TORSDOF 4
ENDMDL
MODEL 2
REMARK VINA RESULT:    -6.033      2.972      5.178
REMARK INTER + INTRA:          -7.403
REMARK INTER:                  -6.984
REMARK INTRA:                  -0.419
REMARK UNBOUND:                -0.136
REMARK SMILES [NH3+]CC(=O)N1CCC([NH+]2CCC[C@H]2C(=O)[O-])CC1
REMARK SMILES IDX 8 1 7 2 6 3 5 4 18 5 17 6 3 7 4 8 9 9 11 10 12 11 10 12
REMARK SMILES IDX 13 13 14 15 15 16 16 17 2 18 1 19
REMARK H PARENT 9 14 1 20 1 21 1 22
ROOT
ATOM      1  C   UNL     1      49.866  51.102  17.084  1.00  0.00    +0.188 C 
ATOM      2  C   UNL     1      50.384  50.196  15.955  1.00  0.00    +0.086 C 
ATOM      3  C   UNL     1      49.260  49.268  15.451  1.00  0.00    +0.126 C 
ATOM      4  N   UNL     1      48.149  49.300  16.402  1.00  0.00    -0.337 N 
ATOM      5  C   UNL     1      47.497  50.615  16.509  1.00  0.00    +0.126 C 
ATOM      6  C   UNL     1      48.536  51.744  16.695  1.00  0.00    +0.086 C 
ATOM      7  C   UNL     1      48.110  48.281  17.366  1.00  0.00    +0.277 C 
ATOM      8  O   UNL     1      48.560  47.152  17.145  1.00  0.00    -0.268 OA
ENDROOT
BRANCH   1   9
ATOM      9  N   UNL     1      50.938  52.007  17.607  1.00  0.00    -0.325 N 
ATOM     10  C   UNL     1      51.686  53.590  19.260  1.00  0.00    +0.068 C 
ATOM     11  C   UNL     1      52.573  52.350  19.354  1.00  0.00    +0.077 C 
ATOM     12  C   UNL     1      50.502  53.223  18.389  1.00  0.00    +0.263 C 
ATOM     13  C   UNL     1      51.822  51.220  18.677  1.00  0.00    +0.231 C 
ATOM     14  H   UNL     1      51.564  52.313  16.854  1.00  0.00    +0.348 HD
BRANCH  13  15
ATOM     15  C   UNL     1      50.994  50.350  19.708  1.00  0.00    +0.099 C 
ATOM     16  O   UNL     1      50.961  49.112  19.480  1.00  0.00    -0.544 OA
ATOM     17  O   UNL     1      50.702  50.913  20.809  1.00  0.00    -0.544 OA
ENDBRANCH  13  15
ENDBRANCH   1   9
BRANCH   7  18
ATOM     18  C   UNL     1      47.666  48.596  18.800  1.00  0.00    +0.360 C 
BRANCH  18  19
ATOM     19  N   UNL     1      46.302  48.047  19.004  1.00  0.00    -0.350 N 
ATOM     20  H   UNL     1      46.191  47.696  19.963  1.00  0.00    +0.344 HD
ATOM     21  H   UNL     1      45.599  48.830  18.935  1.00  0.00    +0.344 HD
ATOM     22  H   UNL     1      46.025  47.355  18.308  1.00  0.00    +0.344 HD
ENDBRANCH  18  19
ENDBRANCH   7  18
TORSDOF 4
ENDMDL
MODEL 3
REMARK VINA RESULT:    -5.918      2.162      5.029
REMARK INTER + INTRA:          -7.265
REMARK INTER:                  -6.616
REMARK INTRA:                  -0.649
REMARK UNBOUND:                -0.136
REMARK SMILES [NH3+]CC(=O)N1CCC([NH+]2CCC[C@H]2C(=O)[O-])CC1
REMARK SMILES IDX 8 1 7 2 6 3 5 4 18 5 17 6 3 7 4 8 9 9 11 10 12 11 10 12
REMARK SMILES IDX 13 13 14 15 15 16 16 17 2 18 1 19
REMARK H PARENT 9 14 1 20 1 21 1 22
ROOT
ATOM      1  C   UNL     1      50.441  50.477  18.699  1.00  0.00    +0.188 C 
ATOM      2  C   UNL     1      51.722  50.808  17.916  1.00  0.00    +0.086 C 
ATOM      3  C   UNL     1      52.562  51.854  18.675  1.00  0.00    +0.126 C 
ATOM      4  N   UNL     1      51.747  52.447  19.735  1.00  0.00    -0.337 N 
ATOM      5  C   UNL     1      51.345  51.493  20.780  1.00  0.00    +0.126 C 
ATOM      6  C   UNL     1      50.762  50.200  20.166  1.00  0.00    +0.086 C 
ATOM      7  C   UNL     1      51.106  53.660  19.438  1.00  0.00    +0.277 C 
ATOM      8  O   UNL     1      51.584  54.477  18.645  1.00  0.00    -0.268 OA
ENDROOT
BRANCH   1   9
ATOM      9  N   UNL     1      49.593  49.473  17.981  1.00  0.00    -0.325 N 
ATOM     10  C   UNL     1      47.452  48.417  17.669  1.00  0.00    +0.068 C 
ATOM     11  C   UNL     1      47.807  49.160  16.382  1.00  0.00    +0.077 C 
ATOM     12  C   UNL     1      48.425  48.883  18.733  1.00  0.00    +0.263 C 
ATOM     13  C   UNL     1      48.874  50.176  16.742  1.00  0.00    +0.231 C 
ATOM     14  H   UNL     1      50.163  48.704  17.612  1.00  0.00    +0.348 HD
BRANCH  13  15
ATOM     15  C   UNL     1      48.262  51.602  17.054  1.00  0.00    +0.099 C 
ATOM     16  O   UNL     1      48.986  52.588  16.756  1.00  0.00    -0.544 OA
ATOM     17  O   UNL     1      47.012  51.637  17.284  1.00  0.00    -0.544 OA
ENDBRANCH  13  15
ENDBRANCH   1   9
BRANCH   7  18
ATOM     18  C   UNL     1      49.689  53.928  19.959  1.00  0.00    +0.360 C 
BRANCH  18  19
ATOM     19  N   UNL     1      48.937  54.677  18.922  1.00  0.00    -0.350 N 
ATOM     20  H   UNL     1      48.611  54.045  18.180  1.00  0.00    +0.344 HD
ATOM     21  H   UNL     1      48.047  55.056  19.343  1.00  0.00    +0.344 HD
ATOM     22  H   UNL     1      49.438  55.482  18.547  1.00  0.00    +0.344 HD
ENDBRANCH  18  19
ENDBRANCH   7  18
TORSDOF 4
ENDMDL
MODEL 4
REMARK VINA RESULT:    -5.748      2.793      4.430
REMARK INTER + INTRA:          -7.060
REMARK INTER:                  -7.142
REMARK INTRA:                   0.083
REMARK UNBOUND:                -0.136
REMARK SMILES [NH3+]CC(=O)N1CCC([NH+]2CCC[C@H]2C(=O)[O-])CC1
REMARK SMILES IDX 8 1 7 2 6 3 5 4 18 5 17 6 3 7 4 8 9 9 11 10 12 11 10 12
REMARK SMILES IDX 13 13 14 15 15 16 16 17 2 18 1 19
REMARK H PARENT 9 14 1 20 1 21 1 22
ROOT
ATOM      1  C   UNL     1      49.576  51.992  17.995  1.00  0.00    +0.188 C 
ATOM      2  C   UNL     1      48.155  52.258  17.474  1.00  0.00    +0.086 C 
ATOM      3  C   UNL     1      47.591  51.002  16.780  1.00  0.00    +0.126 C 
ATOM      4  N   UNL     1      48.681  50.056  16.542  1.00  0.00    -0.337 N 
ATOM      5  C   UNL     1      49.292  49.531  17.774  1.00  0.00    +0.126 C 
ATOM      6  C   UNL     1      49.632  50.672  18.761  1.00  0.00    +0.086 C 
ATOM      7  C   UNL     1      49.281  50.086  15.274  1.00  0.00    +0.277 C 
ATOM      8  O   UNL     1      48.655  50.407  14.259  1.00  0.00    -0.268 OA
ENDROOT
BRANCH   1   9
ATOM      9  N   UNL     1      50.160  53.197  18.663  1.00  0.00    -0.325 N 
ATOM     10  C   UNL     1      51.188  54.200  20.596  1.00  0.00    +0.068 C 
ATOM     11  C   UNL     1      52.192  54.248  19.445  1.00  0.00    +0.077 C 
ATOM     12  C   UNL     1      50.067  53.274  20.168  1.00  0.00    +0.263 C 
ATOM     13  C   UNL     1      51.738  53.225  18.422  1.00  0.00    +0.231 C 
ATOM     14  H   UNL     1      49.773  54.062  18.270  1.00  0.00    +0.348 HD
BRANCH  13  15
ATOM     15  C   UNL     1      52.460  51.830  18.610  1.00  0.00    +0.099 C 
ATOM     16  O   UNL     1      52.856  51.270  17.554  1.00  0.00    -0.544 OA
ATOM     17  O   UNL     1      52.841  51.550  19.790  1.00  0.00    -0.544 OA
ENDBRANCH  13  15
ENDBRANCH   1   9
BRANCH   7  18
ATOM     18  C   UNL     1      50.797  49.892  15.136  1.00  0.00    +0.360 C 
BRANCH  18  19
ATOM     19  N   UNL     1      51.048  48.602  14.446  1.00  0.00    -0.350 N 
ATOM     20  H   UNL     1      51.734  48.040  14.965  1.00  0.00    +0.344 HD
ATOM     21  H   UNL     1      50.170  48.019  14.469  1.00  0.00    +0.344 HD
ATOM     22  H   UNL     1      51.297  48.700  13.462  1.00  0.00    +0.344 HD
ENDBRANCH  18  19
ENDBRANCH   7  18
TORSDOF 4
ENDMDL
MODEL 5
REMARK VINA RESULT:    -5.319      9.656     13.100
REMARK INTER + INTRA:          -6.543
REMARK INTER:                  -6.092
REMARK INTRA:                  -0.450
REMARK UNBOUND:                -0.136
REMARK SMILES [NH3+]CC(=O)N1CCC([NH+]2CCC[C@H]2C(=O)[O-])CC1
REMARK SMILES IDX 8 1 7 2 6 3 5 4 18 5 17 6 3 7 4 8 9 9 11 10 12 11 10 12
REMARK SMILES IDX 13 13 14 15 15 16 16 17 2 18 1 19
REMARK H PARENT 9 14 1 20 1 21 1 22
ROOT
ATOM      1  C   UNL     1      45.273  63.782  16.853  1.00  0.00    +0.188 C 
ATOM      2  C   UNL     1      44.734  63.755  15.414  1.00  0.00    +0.086 C 
ATOM      3  C   UNL     1      44.241  65.155  14.997  1.00  0.00    +0.126 C 
ATOM      4  N   UNL     1      44.134  66.000  16.186  1.00  0.00    -0.337 N 
ATOM      5  C   UNL     1      45.423  66.264  16.845  1.00  0.00    +0.126 C 
ATOM      6  C   UNL     1      46.225  64.959  17.052  1.00  0.00    +0.086 C 
ATOM      7  C   UNL     1      42.869  66.093  16.786  1.00  0.00    +0.277 C 
ATOM      8  O   UNL     1      41.825  65.997  16.134  1.00  0.00    -0.268 OA
ENDROOT
BRANCH   1   9
ATOM      9  N   UNL     1      45.748  62.433  17.296  1.00  0.00    -0.325 N 
ATOM     10  C   UNL     1      47.130  61.098  18.747  1.00  0.00    +0.068 C 
ATOM     11  C   UNL     1      45.669  60.776  19.054  1.00  0.00    +0.077 C 
ATOM     12  C   UNL     1      47.137  62.340  17.879  1.00  0.00    +0.263 C 
ATOM     13  C   UNL     1      44.841  61.922  18.507  1.00  0.00    +0.231 C 
ATOM     14  H   UNL     1      45.667  61.746  16.539  1.00  0.00    +0.348 HD
BRANCH  13  15
ATOM     15  C   UNL     1      44.531  63.016  19.607  1.00  0.00    +0.099 C 
ATOM     16  O   UNL     1      43.319  63.148  19.924  1.00  0.00    -0.544 OA
ATOM     17  O   UNL     1      45.526  63.436  20.277  1.00  0.00    -0.544 OA
ENDBRANCH  13  15
ENDBRANCH   1   9
BRANCH   7  18
ATOM     18  C   UNL     1      42.744  66.136  18.315  1.00  0.00    +0.360 C 
BRANCH  18  19
ATOM     19  N   UNL     1      41.587  65.299  18.719  1.00  0.00    -0.350 N 
ATOM     20  H   UNL     1      41.237  64.752  17.923  1.00  0.00    +0.344 HD
ATOM     21  H   UNL     1      41.911  64.569  19.408  1.00  0.00    +0.344 HD
ATOM     22  H   UNL     1      40.843  65.818  19.185  1.00  0.00    +0.344 HD
ENDBRANCH  18  19
ENDBRANCH   7  18
TORSDOF 4
ENDMDL
