MODEL 1
REMARK VINA RESULT:    -7.736      0.000      0.000
REMARK INTER + INTRA:         -10.081
REMARK INTER:                  -9.997
REMARK INTRA:                  -0.085
REMARK UNBOUND:                -0.085
REMARK SMILES Cc1n[nH]c(C)c1S(=O)(=O)NCC[NH+]1CCC(C)CC1
REMARK SMILES IDX 11 1 8 3 9 4 10 5 7 6 5 7 4 8 2 9 3 10 6 11 1 13 12 14 13 15
REMARK SMILES IDX 14 16 15 17 20 18 16 19 19 20 17 21 18 23
REMARK H PARENT 11 2 4 12 14 22
ROOT
ATOM      1  N   UNL     1      51.310  51.323  17.528  1.00  0.00    -0.205 NA
ATOM      2  H   UNL     1      51.879  51.198  16.684  1.00  0.00    +0.141 HD
ENDROOT
BRANCH   1   3
ATOM      3  S   UNL     1      51.945  52.667  18.359  1.00  0.00    +0.244 S 
ATOM      4  O   UNL     1      53.306  52.814  17.908  1.00  0.00    -0.207 OA
ATOM      5  O   UNL     1      50.956  53.713  18.253  1.00  0.00    -0.207 OA
BRANCH   3   6
ATOM      6  C   UNL     1      52.044  52.232  20.015  1.00  0.00    +0.125 A 
ATOM      7  C   UNL     1      52.343  50.982  20.530  1.00  0.00    +0.052 A 
ATOM      8  N   UNL     1      52.288  51.131  21.888  1.00  0.00    -0.281 N 
ATOM      9  C   UNL     1      51.804  53.056  21.139  1.00  0.00    +0.079 A 
ATOM     10  N   UNL     1      51.883  52.350  22.275  1.00  0.00    -0.179 NA
ATOM     11  C   UNL     1      52.718  49.702  19.887  1.00  0.00    +0.067 C 
ATOM     12  H   UNL     1      52.496  50.444  22.608  1.00  0.00    +0.190 HD
ATOM     13  C   UNL     1      51.476  54.503  21.204  1.00  0.00    +0.070 C 
ENDBRANCH   3   6
ENDBRANCH   1   3
BRANCH   1  14
ATOM     14  C   UNL     1      49.850  51.342  17.327  1.00  0.00    +0.160 C 
BRANCH  14  15
ATOM     15  C   UNL     1      49.449  50.295  16.274  1.00  0.00    +0.278 C 
BRANCH  15  16
ATOM     16  N   UNL     1      48.649  49.145  16.876  1.00  0.00    -0.334 N 
ATOM     17  C   UNL     1      47.438  48.790  16.023  1.00  0.00    +0.262 C 
ATOM     18  C   UNL     1      48.333  49.349  18.349  1.00  0.00    +0.262 C 
ATOM     19  C   UNL     1      46.180  49.426  16.591  1.00  0.00    +0.065 C 
ATOM     20  C   UNL     1      47.146  48.492  18.753  1.00  0.00    +0.065 C 
ATOM     21  C   UNL     1      45.872  48.921  18.010  1.00  0.00    -0.003 C 
ATOM     22  H   UNL     1      49.256  48.314  16.822  1.00  0.00    +0.348 HD
ATOM     23  C   UNL     1      44.860  47.775  17.991  1.00  0.00    +0.008 C 
ENDBRANCH  15  16
ENDBRANCH  14  15
ENDBRANCH   1  14
TORSDOF 5
ENDMDL
MODEL 2
REMARK VINA RESULT:    -7.442      2.798      6.393
REMARK INTER + INTRA:          -9.702
REMARK INTER:                  -9.510
REMARK INTRA:                  -0.192
REMARK UNBOUND:                -0.085
REMARK SMILES Cc1n[nH]c(C)c1S(=O)(=O)NCC[NH+]1CCC(C)CC1
REMARK SMILES IDX 11 1 8 3 9 4 10 5 7 6 5 7 4 8 2 9 3 10 6 11 1 13 12 14 13 15
REMARK SMILES IDX 14 16 15 17 20 18 16 19 19 20 17 21 18 23
REMARK H PARENT 11 2 4 12 14 22
ROOT
ATOM      1  N   UNL     1      52.218  53.242  20.437  1.00  0.00    -0.205 NA
ATOM      2  H   UNL     1      52.709  52.415  20.791  1.00  0.00    +0.141 HD
ENDROOT
BRANCH   1   3
ATOM      3  S   UNL     1      51.933  52.978  18.779  1.00  0.00    +0.244 S 
ATOM      4  O   UNL     1      51.021  54.012  18.358  1.00  0.00    -0.207 OA
ATOM      5  O   UNL     1      53.225  52.763  18.173  1.00  0.00    -0.207 OA
BRANCH   3   6
ATOM      6  C   UNL     1      51.064  51.505  18.649  1.00  0.00    +0.125 A 
ATOM      7  C   UNL     1      51.475  50.255  19.081  1.00  0.00    +0.052 A 
ATOM      8  N   UNL     1      50.456  49.407  18.746  1.00  0.00    -0.281 N 
ATOM      9  C   UNL     1      49.799  51.300  18.050  1.00  0.00    +0.079 A 
ATOM     10  N   UNL     1      49.475  50.000  18.050  1.00  0.00    -0.179 NA
ATOM     11  C   UNL     1      52.681  49.798  19.808  1.00  0.00    +0.067 C 
ATOM     12  H   UNL     1      50.371  48.414  18.944  1.00  0.00    +0.190 HD
ATOM     13  C   UNL     1      48.863  52.282  17.444  1.00  0.00    +0.070 C 
ENDBRANCH   3   6
ENDBRANCH   1   3
BRANCH   1  14
ATOM     14  C   UNL     1      51.044  53.680  21.213  1.00  0.00    +0.160 C 
BRANCH  14  15
ATOM     15  C   UNL     1      51.160  55.177  21.545  1.00  0.00    +0.278 C 
BRANCH  15  16
ATOM     16  N   UNL     1      50.393  56.050  20.558  1.00  0.00    -0.334 N 
ATOM     17  C   UNL     1      50.438  57.521  20.949  1.00  0.00    +0.262 C 
ATOM     18  C   UNL     1      48.996  55.528  20.265  1.00  0.00    +0.262 C 
ATOM     19  C   UNL     1      49.162  57.921  21.669  1.00  0.00    +0.065 C 
ATOM     20  C   UNL     1      48.121  56.646  19.727  1.00  0.00    +0.065 C 
ATOM     21  C   UNL     1      47.921  57.750  20.778  1.00  0.00    -0.003 C 
ATOM     22  H   UNL     1      50.913  56.002  19.669  1.00  0.00    +0.348 HD
ATOM     23  C   UNL     1      47.532  59.063  20.097  1.00  0.00    +0.008 C 
ENDBRANCH  15  16
ENDBRANCH  14  15
ENDBRANCH   1  14
TORSDOF 5
ENDMDL
MODEL 3
REMARK VINA RESULT:    -7.391      1.827      2.231
REMARK INTER + INTRA:          -9.636
REMARK INTER:                  -9.590
REMARK INTRA:                  -0.046
REMARK UNBOUND:                -0.085
REMARK SMILES Cc1n[nH]c(C)c1S(=O)(=O)NCC[NH+]1CCC(C)CC1
REMARK SMILES IDX 11 1 8 3 9 4 10 5 7 6 5 7 4 8 2 9 3 10 6 11 1 13 12 14 13 15
REMARK SMILES IDX 14 16 15 17 20 18 16 19 19 20 17 21 18 23
REMARK H PARENT 11 2 4 12 14 22
ROOT
ATOM      1  N   UNL     1      50.252  53.650  18.818  1.00  0.00    -0.205 NA
ATOM      2  H   UNL     1      49.692  53.607  19.675  1.00  0.00    +0.141 HD
ENDROOT
BRANCH   1   3
ATOM      3  S   UNL     1      51.724  54.405  19.223  1.00  0.00    +0.244 S 
ATOM      4  O   UNL     1      52.764  53.461  18.898  1.00  0.00    -0.207 OA
ATOM      5  O   UNL     1      51.662  55.738  18.674  1.00  0.00    -0.207 OA
BRANCH   3   6
ATOM      6  C   UNL     1      51.752  54.564  20.931  1.00  0.00    +0.125 A 
ATOM      7  C   UNL     1      51.484  53.576  21.863  1.00  0.00    +0.052 A 
ATOM      8  N   UNL     1      51.620  54.185  23.080  1.00  0.00    -0.281 N 
ATOM      9  C   UNL     1      52.016  55.732  21.683  1.00  0.00    +0.079 A 
ATOM     10  N   UNL     1      51.858  55.502  22.994  1.00  0.00    -0.179 NA
ATOM     11  C   UNL     1      51.170  52.136  21.728  1.00  0.00    +0.067 C 
ATOM     12  H   UNL     1      51.548  53.770  24.005  1.00  0.00    +0.190 HD
ATOM     13  C   UNL     1      52.400  57.092  21.226  1.00  0.00    +0.070 C 
ENDBRANCH   3   6
ENDBRANCH   1   3
BRANCH   1  14
ATOM     14  C   UNL     1      50.381  52.389  18.066  1.00  0.00    +0.160 C 
BRANCH  14  15
ATOM     15  C   UNL     1      49.078  52.094  17.303  1.00  0.00    +0.278 C 
BRANCH  15  16
ATOM     16  N   UNL     1      48.816  50.600  17.159  1.00  0.00    -0.334 N 
ATOM     17  C   UNL     1      47.480  50.320  16.484  1.00  0.00    +0.262 C 
ATOM     18  C   UNL     1      49.029  49.833  18.455  1.00  0.00    +0.262 C 
ATOM     19  C   UNL     1      46.416  49.996  17.519  1.00  0.00    +0.065 C 
ATOM     20  C   UNL     1      48.283  48.511  18.410  1.00  0.00    +0.065 C 
ATOM     21  C   UNL     1      46.765  48.733  18.323  1.00  0.00    -0.003 C 
ATOM     22  H   UNL     1      49.521  50.247  16.495  1.00  0.00    +0.348 HD
ATOM     23  C   UNL     1      46.082  47.492  17.747  1.00  0.00    +0.008 C 
ENDBRANCH  15  16
ENDBRANCH  14  15
ENDBRANCH   1  14
TORSDOF 5
ENDMDL
MODEL 4
REMARK VINA RESULT:    -7.322      1.064      2.363
REMARK INTER + INTRA:          -9.547
REMARK INTER:                  -9.372
REMARK INTRA:                  -0.176
REMARK UNBOUND:                -0.085
REMARK SMILES Cc1n[nH]c(C)c1S(=O)(=O)NCC[NH+]1CCC(C)CC1
REMARK SMILES IDX 11 1 8 3 9 4 10 5 7 6 5 7 4 8 2 9 3 10 6 11 1 13 12 14 13 15
REMARK SMILES IDX 14 16 15 17 20 18 16 19 19 20 17 21 18 23
REMARK H PARENT 11 2 4 12 14 22
ROOT
ATOM      1  N   UNL     1      51.066  51.556  17.539  1.00  0.00    -0.205 NA
ATOM      2  H   UNL     1      51.175  51.768  16.542  1.00  0.00    +0.141 HD
ENDROOT
BRANCH   1   3
ATOM      3  S   UNL     1      51.844  52.804  18.399  1.00  0.00    +0.244 S 
ATOM      4  O   UNL     1      53.212  52.811  17.948  1.00  0.00    -0.207 OA
ATOM      5  O   UNL     1      50.975  53.954  18.322  1.00  0.00    -0.207 OA
BRANCH   3   6
ATOM      6  C   UNL     1      51.895  52.321  20.044  1.00  0.00    +0.125 A 
ATOM      7  C   UNL     1      51.515  53.070  21.145  1.00  0.00    +0.052 A 
ATOM      8  N   UNL     1      51.752  52.267  22.225  1.00  0.00    -0.281 N 
ATOM      9  C   UNL     1      52.366  51.094  20.568  1.00  0.00    +0.079 A 
ATOM     10  N   UNL     1      52.342  51.105  21.908  1.00  0.00    -0.179 NA
ATOM     11  C   UNL     1      50.916  54.418  21.274  1.00  0.00    +0.067 C 
ATOM     12  H   UNL     1      51.553  52.452  23.205  1.00  0.00    +0.190 HD
ATOM     13  C   UNL     1      52.868  49.888  19.861  1.00  0.00    +0.070 C 
ENDBRANCH   3   6
ENDBRANCH   1   3
BRANCH   1  14
ATOM     14  C   UNL     1      49.696  51.246  17.988  1.00  0.00    +0.160 C 
BRANCH  14  15
ATOM     15  C   UNL     1      49.607  49.774  18.426  1.00  0.00    +0.278 C 
BRANCH  15  16
ATOM     16  N   UNL     1      48.289  49.126  18.016  1.00  0.00    -0.334 N 
ATOM     17  C   UNL     1      48.510  47.870  17.184  1.00  0.00    +0.262 C 
ATOM     18  C   UNL     1      47.309  50.113  17.402  1.00  0.00    +0.262 C 
ATOM     19  C   UNL     1      48.353  48.175  15.704  1.00  0.00    +0.065 C 
ATOM     20  C   UNL     1      46.279  49.376  16.564  1.00  0.00    +0.065 C 
ATOM     21  C   UNL     1      46.938  48.673  15.367  1.00  0.00    -0.003 C 
ATOM     22  H   UNL     1      47.853  48.787  18.886  1.00  0.00    +0.348 HD
ATOM     23  C   UNL     1      46.046  47.535  14.867  1.00  0.00    +0.008 C 
ENDBRANCH  15  16
ENDBRANCH  14  15
ENDBRANCH   1  14
TORSDOF 5
ENDMDL
MODEL 5
REMARK VINA RESULT:    -7.289      2.471      6.376
REMARK INTER + INTRA:          -9.504
REMARK INTER:                  -9.223
REMARK INTRA:                  -0.281
REMARK UNBOUND:                -0.085
REMARK SMILES Cc1n[nH]c(C)c1S(=O)(=O)NCC[NH+]1CCC(C)CC1
REMARK SMILES IDX 11 1 8 3 9 4 10 5 7 6 5 7 4 8 2 9 3 10 6 11 1 13 12 14 13 15
REMARK SMILES IDX 14 16 15 17 20 18 16 19 19 20 17 21 18 23
REMARK H PARENT 11 2 4 12 14 22
ROOT
ATOM      1  N   UNL     1      52.017  52.027  20.331  1.00  0.00    -0.205 NA
ATOM      2  H   UNL     1      52.218  51.106  20.734  1.00  0.00    +0.141 HD
ENDROOT
BRANCH   1   3
ATOM      3  S   UNL     1      51.657  51.781  18.685  1.00  0.00    +0.244 S 
ATOM      4  O   UNL     1      51.215  53.054  18.174  1.00  0.00    -0.207 OA
ATOM      5  O   UNL     1      52.769  51.046  18.131  1.00  0.00    -0.207 OA
BRANCH   3   6
ATOM      6  C   UNL     1      50.288  50.749  18.620  1.00  0.00    +0.125 A 
ATOM      7  C   UNL     1      49.149  50.924  17.852  1.00  0.00    +0.052 A 
ATOM      8  N   UNL     1      48.348  49.858  18.151  1.00  0.00    -0.281 N 
ATOM      9  C   UNL     1      50.066  49.565  19.360  1.00  0.00    +0.079 A 
ATOM     10  N   UNL     1      48.843  49.072  19.119  1.00  0.00    -0.179 NA
ATOM     11  C   UNL     1      48.771  51.944  16.848  1.00  0.00    +0.067 C 
ATOM     12  H   UNL     1      47.447  49.614  17.749  1.00  0.00    +0.190 HD
ATOM     13  C   UNL     1      50.954  48.863  20.322  1.00  0.00    +0.070 C 
ENDBRANCH   3   6
ENDBRANCH   1   3
BRANCH   1  14
ATOM     14  C   UNL     1      51.047  52.857  21.067  1.00  0.00    +0.160 C 
BRANCH  14  15
ATOM     15  C   UNL     1      51.563  54.303  21.172  1.00  0.00    +0.278 C 
BRANCH  15  16
ATOM     16  N   UNL     1      50.745  55.272  20.326  1.00  0.00    -0.334 N 
ATOM     17  C   UNL     1      50.955  56.717  20.757  1.00  0.00    +0.262 C 
ATOM     18  C   UNL     1      49.284  54.866  20.203  1.00  0.00    +0.262 C 
ATOM     19  C   UNL     1      49.817  57.177  21.655  1.00  0.00    +0.065 C 
ATOM     20  C   UNL     1      48.437  56.068  19.825  1.00  0.00    +0.065 C 
ATOM     21  C   UNL     1      48.462  57.135  20.930  1.00  0.00    -0.003 C 
ATOM     22  H   UNL     1      51.139  55.226  19.374  1.00  0.00    +0.348 HD
ATOM     23  C   UNL     1      48.091  58.502  20.353  1.00  0.00    +0.008 C 
ENDBRANCH  15  16
ENDBRANCH  14  15
ENDBRANCH   1  14
TORSDOF 5
ENDMDL
