MODEL 1
REMARK VINA RESULT:    -7.778      0.000      0.000
REMARK INTER + INTRA:          -8.768
REMARK INTER:                  -8.688
REMARK INTRA:                  -0.080
REMARK UNBOUND:                -0.080
REMARK SMILES O=C([C@H]1CCCN1c1n[nH]c(=O)[nH]c1=O)N1CC[NH2+]CC1
REMARK SMILES IDX 5 1 4 2 3 3 7 4 6 5 2 6 1 7 16 8 17 9 21 10 18 11 20 12
REMARK SMILES IDX 19 13 8 16 14 17 9 18 15 19 13 20 10 21 11 22 12 23
REMARK H PARENT 19 14 19 15 13 24 10 25
ROOT
ATOM      1  C   UNL     1      47.607  56.550  19.931  1.00  0.00    +0.024 C 
ATOM      2  C   UNL     1      48.014  55.091  19.878  1.00  0.00    +0.037 C 
ATOM      3  C   UNL     1      49.543  55.158  19.776  1.00  0.00    +0.173 C 
ATOM      4  N   UNL     1      49.905  56.414  20.459  1.00  0.00    -0.339 N 
ATOM      5  C   UNL     1      48.698  57.178  20.788  1.00  0.00    +0.119 C 
ENDROOT
BRANCH   3   6
ATOM      6  C   UNL     1      50.150  53.935  20.487  1.00  0.00    +0.245 C 
ATOM      7  O   UNL     1      50.522  53.991  21.664  1.00  0.00    -0.272 OA
ATOM      8  N   UNL     1      50.293  52.740  19.775  1.00  0.00    -0.330 N 
ATOM      9  C   UNL     1      50.738  52.722  18.369  1.00  0.00    +0.181 C 
ATOM     10  C   UNL     1      50.805  51.608  20.555  1.00  0.00    +0.181 C 
ATOM     11  C   UNL     1      52.214  52.262  18.248  1.00  0.00    +0.282 C 
ATOM     12  C   UNL     1      52.335  51.715  20.714  1.00  0.00    +0.282 C 
ATOM     13  N   UNL     1      52.928  52.487  19.553  1.00  0.00    -0.343 N 
ATOM     14  H   UNL     1      53.936  52.307  19.483  1.00  0.00    +0.346 HD
ATOM     15  H   UNL     1      52.827  53.500  19.771  1.00  0.00    +0.346 HD
ENDBRANCH   3   6
BRANCH   4  16
ATOM     16  C   UNL     1      51.181  56.736  20.904  1.00  0.00    +0.215 C 
ATOM     17  C   UNL     1      52.392  56.685  19.922  1.00  0.00    +0.296 C 
ATOM     18  N   UNL     1      51.401  57.086  22.155  1.00  0.00    -0.147 NA
ATOM     19  O   UNL     1      52.375  56.032  18.892  1.00  0.00    -0.265 OA
ATOM     20  N   UNL     1      53.479  57.395  20.330  1.00  0.00    -0.270 N 
ATOM     21  N   UNL     1      52.691  57.366  22.507  1.00  0.00    -0.226 N 
ATOM     22  C   UNL     1      53.754  57.485  21.649  1.00  0.00    +0.342 C 
ATOM     23  O   UNL     1      54.890  57.640  22.082  1.00  0.00    -0.246 OA
ATOM     24  H   UNL     1      54.292  57.314  19.735  1.00  0.00    +0.175 HD
ATOM     25  H   UNL     1      52.949  57.302  23.488  1.00  0.00    +0.195 HD
ENDBRANCH   4  16
TORSDOF 2
ENDMDL
MODEL 2
REMARK VINA RESULT:    -7.311      4.400      7.099
REMARK INTER + INTRA:          -8.246
REMARK INTER:                  -7.762
REMARK INTRA:                  -0.484
REMARK UNBOUND:                -0.080
REMARK SMILES O=C([C@H]1CCCN1c1n[nH]c(=O)[nH]c1=O)N1CC[NH2+]CC1
REMARK SMILES IDX 5 1 4 2 3 3 7 4 6 5 2 6 1 7 16 8 17 9 21 10 18 11 20 12
REMARK SMILES IDX 19 13 8 16 14 17 9 18 15 19 13 20 10 21 11 22 12 23
REMARK H PARENT 19 14 19 15 13 24 10 25
ROOT
ATOM      1  C   UNL     1      48.241  53.982  17.200  1.00  0.00    +0.024 C 
ATOM      2  C   UNL     1      49.497  53.821  18.031  1.00  0.00    +0.037 C 
ATOM      3  C   UNL     1      49.412  52.369  18.517  1.00  0.00    +0.173 C 
ATOM      4  N   UNL     1      48.648  51.671  17.465  1.00  0.00    -0.339 N 
ATOM      5  C   UNL     1      48.122  52.636  16.496  1.00  0.00    +0.119 C 
ENDROOT
BRANCH   3   6
ATOM      6  C   UNL     1      50.835  51.798  18.653  1.00  0.00    +0.245 C 
ATOM      7  O   UNL     1      51.555  51.615  17.665  1.00  0.00    -0.272 OA
ATOM      8  N   UNL     1      51.313  51.467  19.926  1.00  0.00    -0.330 N 
ATOM      9  C   UNL     1      50.457  50.812  20.931  1.00  0.00    +0.181 C 
ATOM     10  C   UNL     1      52.705  51.007  19.967  1.00  0.00    +0.181 C 
ATOM     11  C   UNL     1      50.803  49.307  21.077  1.00  0.00    +0.282 C 
ATOM     12  C   UNL     1      52.794  49.530  19.533  1.00  0.00    +0.282 C 
ATOM     13  N   UNL     1      51.489  48.819  19.830  1.00  0.00    -0.343 N 
ATOM     14  H   UNL     1      51.631  47.802  19.834  1.00  0.00    +0.346 HD
ATOM     15  H   UNL     1      50.840  49.019  19.041  1.00  0.00    +0.346 HD
ENDBRANCH   3   6
BRANCH   4  16
ATOM     16  C   UNL     1      48.601  50.292  17.302  1.00  0.00    +0.215 C 
ATOM     17  C   UNL     1      49.163  49.635  16.003  1.00  0.00    +0.296 C 
ATOM     18  N   UNL     1      48.085  49.511  18.228  1.00  0.00    -0.147 NA
ATOM     19  O   UNL     1      49.301  50.254  14.961  1.00  0.00    -0.265 OA
ATOM     20  N   UNL     1      49.445  48.309  16.118  1.00  0.00    -0.270 N 
ATOM     21  N   UNL     1      48.065  48.169  17.973  1.00  0.00    -0.226 N 
ATOM     22  C   UNL     1      48.682  47.538  16.924  1.00  0.00    +0.342 C 
ATOM     23  O   UNL     1      48.516  46.339  16.732  1.00  0.00    -0.246 OA
ATOM     24  H   UNL     1      49.744  47.859  15.264  1.00  0.00    +0.175 HD
ATOM     25  H   UNL     1      47.396  47.591  18.474  1.00  0.00    +0.195 HD
ENDBRANCH   4  16
TORSDOF 2
ENDMDL
MODEL 3
REMARK VINA RESULT:    -6.999      2.223      5.449
REMARK INTER + INTRA:          -7.897
REMARK INTER:                  -8.313
REMARK INTRA:                   0.416
REMARK UNBOUND:                -0.080
REMARK SMILES O=C([C@H]1CCCN1c1n[nH]c(=O)[nH]c1=O)N1CC[NH2+]CC1
REMARK SMILES IDX 5 1 4 2 3 3 7 4 6 5 2 6 1 7 16 8 17 9 21 10 18 11 20 12
REMARK SMILES IDX 19 13 8 16 14 17 9 18 15 19 13 20 10 21 11 22 12 23
REMARK H PARENT 19 14 19 15 13 24 10 25
ROOT
ATOM      1  C   UNL     1      47.900  53.338  17.234  1.00  0.00    +0.024 C 
ATOM      2  C   UNL     1      48.629  54.511  17.858  1.00  0.00    +0.037 C 
ATOM      3  C   UNL     1      49.541  53.844  18.896  1.00  0.00    +0.173 C 
ATOM      4  N   UNL     1      49.811  52.503  18.344  1.00  0.00    -0.339 N 
ATOM      5  C   UNL     1      48.980  52.266  17.160  1.00  0.00    +0.119 C 
ENDROOT
BRANCH   3   6
ATOM      6  C   UNL     1      50.834  54.668  19.032  1.00  0.00    +0.245 C 
ATOM      7  O   UNL     1      51.934  54.201  18.716  1.00  0.00    -0.272 OA
ATOM      8  N   UNL     1      50.758  55.969  19.540  1.00  0.00    -0.330 N 
ATOM      9  C   UNL     1      49.874  56.311  20.669  1.00  0.00    +0.181 C 
ATOM     10  C   UNL     1      52.027  56.705  19.559  1.00  0.00    +0.181 C 
ATOM     11  C   UNL     1      50.677  56.497  21.983  1.00  0.00    +0.282 C 
ATOM     12  C   UNL     1      52.882  56.267  20.766  1.00  0.00    +0.282 C 
ATOM     13  N   UNL     1      51.990  55.770  21.885  1.00  0.00    -0.343 N 
ATOM     14  H   UNL     1      52.503  55.767  22.774  1.00  0.00    +0.346 HD
ATOM     15  H   UNL     1      51.759  54.775  21.679  1.00  0.00    +0.346 HD
ENDBRANCH   3   6
BRANCH   4  16
ATOM     16  C   UNL     1      50.839  51.667  18.759  1.00  0.00    +0.215 C 
ATOM     17  C   UNL     1      51.025  51.342  20.273  1.00  0.00    +0.296 C 
ATOM     18  N   UNL     1      51.678  51.132  17.895  1.00  0.00    -0.147 NA
ATOM     19  O   UNL     1      50.574  52.052  21.157  1.00  0.00    -0.265 OA
ATOM     20  N   UNL     1      51.763  50.227  20.525  1.00  0.00    -0.270 N 
ATOM     21  N   UNL     1      52.670  50.338  18.397  1.00  0.00    -0.226 N 
ATOM     22  C   UNL     1      52.777  49.903  19.693  1.00  0.00    +0.342 C 
ATOM     23  O   UNL     1      53.763  49.275  20.060  1.00  0.00    -0.246 OA
ATOM     24  H   UNL     1      51.947  50.047  21.503  1.00  0.00    +0.175 HD
ATOM     25  H   UNL     1      53.505  50.195  17.837  1.00  0.00    +0.195 HD
ENDBRANCH   4  16
TORSDOF 2
ENDMDL
MODEL 4
REMARK VINA RESULT:    -6.796     10.033     12.692
REMARK INTER + INTRA:          -7.670
REMARK INTER:                  -6.704
REMARK INTRA:                  -0.967
REMARK UNBOUND:                -0.080
REMARK SMILES O=C([C@H]1CCCN1c1n[nH]c(=O)[nH]c1=O)N1CC[NH2+]CC1
REMARK SMILES IDX 5 1 4 2 3 3 7 4 6 5 2 6 1 7 16 8 17 9 21 10 18 11 20 12
REMARK SMILES IDX 19 13 8 16 14 17 9 18 15 19 13 20 10 21 11 22 12 23
REMARK H PARENT 19 14 19 15 13 24 10 25
ROOT
ATOM      1  C   UNL     1      46.557  62.298  19.688  1.00  0.00    +0.024 C 
ATOM      2  C   UNL     1      45.138  62.796  19.867  1.00  0.00    +0.037 C 
ATOM      3  C   UNL     1      44.990  63.839  18.751  1.00  0.00    +0.173 C 
ATOM      4  N   UNL     1      45.907  63.379  17.691  1.00  0.00    -0.339 N 
ATOM      5  C   UNL     1      46.716  62.256  18.174  1.00  0.00    +0.119 C 
ENDROOT
BRANCH   3   6
ATOM      6  C   UNL     1      43.529  63.853  18.265  1.00  0.00    +0.245 C 
ATOM      7  O   UNL     1      42.924  62.806  18.008  1.00  0.00    -0.272 OA
ATOM      8  N   UNL     1      42.883  65.082  18.099  1.00  0.00    -0.330 N 
ATOM      9  C   UNL     1      43.571  66.249  17.519  1.00  0.00    +0.181 C 
ATOM     10  C   UNL     1      41.470  64.994  17.710  1.00  0.00    +0.181 C 
ATOM     11  C   UNL     1      43.121  66.504  16.057  1.00  0.00    +0.282 C 
ATOM     12  C   UNL     1      41.347  64.707  16.200  1.00  0.00    +0.282 C 
ATOM     13  N   UNL     1      42.562  65.238  15.467  1.00  0.00    -0.343 N 
ATOM     14  H   UNL     1      42.361  65.329  14.464  1.00  0.00    +0.346 HD
ATOM     15  H   UNL     1      43.312  64.521  15.549  1.00  0.00    +0.346 HD
ENDBRANCH   3   6
BRANCH   4  16
ATOM     16  C   UNL     1      45.873  63.809  16.371  1.00  0.00    +0.215 C 
ATOM     17  C   UNL     1      46.699  65.056  15.929  1.00  0.00    +0.296 C 
ATOM     18  N   UNL     1      45.147  63.184  15.466  1.00  0.00    -0.147 NA
ATOM     19  O   UNL     1      47.079  65.905  16.719  1.00  0.00    -0.265 OA
ATOM     20  N   UNL     1      46.923  65.139  14.589  1.00  0.00    -0.270 N 
ATOM     21  N   UNL     1      45.160  63.690  14.197  1.00  0.00    -0.226 N 
ATOM     22  C   UNL     1      45.985  64.681  13.732  1.00  0.00    +0.342 C 
ATOM     23  O   UNL     1      45.844  65.130  12.601  1.00  0.00    -0.246 OA
ATOM     24  H   UNL     1      47.398  65.978  14.286  1.00  0.00    +0.175 HD
ATOM     25  H   UNL     1      44.385  63.466  13.580  1.00  0.00    +0.195 HD
ENDBRANCH   4  16
TORSDOF 2
ENDMDL
MODEL 5
REMARK VINA RESULT:    -6.341     10.119     12.749
REMARK INTER + INTRA:          -7.162
REMARK INTER:                  -6.194
REMARK INTRA:                  -0.968
REMARK UNBOUND:                -0.080
REMARK SMILES O=C([C@H]1CCCN1c1n[nH]c(=O)[nH]c1=O)N1CC[NH2+]CC1
REMARK SMILES IDX 5 1 4 2 3 3 7 4 6 5 2 6 1 7 16 8 17 9 21 10 18 11 20 12
REMARK SMILES IDX 19 13 8 16 14 17 9 18 15 19 13 20 10 21 11 22 12 23
REMARK H PARENT 19 14 19 15 13 24 10 25
ROOT
ATOM      1  C   UNL     1      46.606  61.937  19.494  1.00  0.00    +0.024 C 
ATOM      2  C   UNL     1      46.613  61.975  17.980  1.00  0.00    +0.037 C 
ATOM      3  C   UNL     1      45.184  62.416  17.635  1.00  0.00    +0.173 C 
ATOM      4  N   UNL     1      44.759  63.230  18.789  1.00  0.00    -0.339 N 
ATOM      5  C   UNL     1      45.754  63.146  19.862  1.00  0.00    +0.119 C 
ENDROOT
BRANCH   3   6
ATOM      6  C   UNL     1      45.212  63.247  16.339  1.00  0.00    +0.245 C 
ATOM      7  O   UNL     1      46.023  64.166  16.179  1.00  0.00    -0.272 OA
ATOM      8  N   UNL     1      44.288  62.959  15.330  1.00  0.00    -0.330 N 
ATOM      9  C   UNL     1      42.883  62.630  15.634  1.00  0.00    +0.181 C 
ATOM     10  C   UNL     1      44.442  63.747  14.102  1.00  0.00    +0.181 C 
ATOM     11  C   UNL     1      41.941  63.820  15.318  1.00  0.00    +0.282 C 
ATOM     12  C   UNL     1      43.828  65.150  14.286  1.00  0.00    +0.282 C 
ATOM     13  N   UNL     1      42.723  65.105  15.322  1.00  0.00    -0.343 N 
ATOM     14  H   UNL     1      42.119  65.931  15.234  1.00  0.00    +0.346 HD
ATOM     15  H   UNL     1      43.173  65.171  16.258  1.00  0.00    +0.346 HD
ENDBRANCH   3   6
BRANCH   4  16
ATOM     16  C   UNL     1      43.680  64.105  18.788  1.00  0.00    +0.215 C 
ATOM     17  C   UNL     1      42.260  63.602  19.192  1.00  0.00    +0.296 C 
ATOM     18  N   UNL     1      43.826  65.369  18.448  1.00  0.00    -0.147 NA
ATOM     19  O   UNL     1      41.945  62.424  19.151  1.00  0.00    -0.265 OA
ATOM     20  N   UNL     1      41.394  64.588  19.553  1.00  0.00    -0.270 N 
ATOM     21  N   UNL     1      42.706  66.151  18.458  1.00  0.00    -0.226 N 
ATOM     22  C   UNL     1      41.477  65.794  18.951  1.00  0.00    +0.342 C 
ATOM     23  O   UNL     1      40.512  66.538  18.819  1.00  0.00    -0.246 OA
ATOM     24  H   UNL     1      40.452  64.279  19.750  1.00  0.00    +0.175 HD
ATOM     25  H   UNL     1      42.701  66.998  17.896  1.00  0.00    +0.195 HD
ENDBRANCH   4  16
TORSDOF 2
ENDMDL
