MODEL 1
REMARK VINA RESULT:    -7.557      0.000      0.000
REMARK INTER + INTRA:         -10.427
REMARK INTER:                  -9.767
REMARK INTRA:                  -0.661
REMARK UNBOUND:                -0.661
REMARK SMILES Cc1ccc(C(=O)[O-])cc1NC(=O)N[C@H](C)CC(C)C
REMARK SMILES IDX 11 1 12 2 13 3 14 4 10 7 2 8 3 9 4 10 9 11 5 12 1 13 6 14
REMARK SMILES IDX 7 15 8 16 15 17 16 18 17 19 18 20 19 21 20 22
REMARK H PARENT 11 5 14 6
ROOT
ATOM      1  N   UNL     1      50.684  54.731  18.996  1.00  0.00    -0.308 N 
ATOM      2  C   UNL     1      50.695  53.391  19.305  1.00  0.00    +0.319 C 
ATOM      3  O   UNL     1      50.442  52.864  20.378  1.00  0.00    -0.248 OA
ATOM      4  N   UNL     1      51.020  52.657  18.175  1.00  0.00    -0.335 N 
ATOM      5  H   UNL     1      50.385  54.908  18.047  1.00  0.00    +0.171 HD
ATOM      6  H   UNL     1      51.604  53.158  17.521  1.00  0.00    +0.165 HD
ENDROOT
BRANCH   1   7
ATOM      7  C   UNL     1      50.536  55.835  19.866  1.00  0.00    +0.046 A 
ATOM      8  C   UNL     1      49.324  56.374  20.327  1.00  0.00    -0.027 A 
ATOM      9  C   UNL     1      49.367  57.498  21.178  1.00  0.00    +0.006 A 
ATOM     10  C   UNL     1      50.580  58.035  21.616  1.00  0.00    +0.010 A 
ATOM     11  C   UNL     1      51.747  56.370  20.346  1.00  0.00    +0.036 A 
ATOM     12  C   UNL     1      51.792  57.468  21.219  1.00  0.00    -0.001 A 
ATOM     13  C   UNL     1      47.966  55.823  20.005  1.00  0.00    +0.046 C 
BRANCH  12  14
ATOM     14  C   UNL     1      53.117  58.012  21.710  1.00  0.00    +0.072 C 
ATOM     15  O   UNL     1      53.143  59.233  22.066  1.00  0.00    -0.545 OA
ATOM     16  O   UNL     1      54.106  57.212  21.726  1.00  0.00    -0.545 OA
ENDBRANCH  12  14
ENDBRANCH   1   7
BRANCH   4  17
ATOM     17  C   UNL     1      51.193  51.208  18.240  1.00  0.00    +0.081 C 
ATOM     18  C   UNL     1      52.377  50.795  17.360  1.00  0.00    +0.031 C 
BRANCH  17  19
ATOM     19  C   UNL     1      49.885  50.515  17.806  1.00  0.00    +0.027 C 
BRANCH  19  20
ATOM     20  C   UNL     1      49.556  49.223  18.582  1.00  0.00    -0.015 C 
ATOM     21  C   UNL     1      48.058  48.951  18.701  1.00  0.00    +0.007 C 
ATOM     22  C   UNL     1      50.178  49.289  19.980  1.00  0.00    +0.007 C 
ENDBRANCH  19  20
ENDBRANCH  17  19
ENDBRANCH   4  17
TORSDOF 5
ENDMDL
MODEL 2
REMARK VINA RESULT:    -7.249      2.289      3.460
REMARK INTER + INTRA:         -10.029
REMARK INTER:                  -9.454
REMARK INTRA:                  -0.575
REMARK UNBOUND:                -0.661
REMARK SMILES Cc1ccc(C(=O)[O-])cc1NC(=O)N[C@H](C)CC(C)C
REMARK SMILES IDX 11 1 12 2 13 3 14 4 10 7 2 8 3 9 4 10 9 11 5 12 1 13 6 14
REMARK SMILES IDX 7 15 8 16 15 17 16 18 17 19 18 20 19 21 20 22
REMARK H PARENT 11 5 14 6
ROOT
ATOM      1  N   UNL     1      49.865  53.434  18.012  1.00  0.00    -0.308 N 
ATOM      2  C   UNL     1      49.717  52.066  18.015  1.00  0.00    +0.319 C 
ATOM      3  O   UNL     1      49.848  51.297  18.956  1.00  0.00    -0.248 OA
ATOM      4  N   UNL     1      49.352  51.636  16.749  1.00  0.00    -0.335 N 
ATOM      5  H   UNL     1      49.230  53.891  17.373  1.00  0.00    +0.171 HD
ATOM      6  H   UNL     1      49.688  52.232  16.007  1.00  0.00    +0.165 HD
ENDROOT
BRANCH   1   7
ATOM      7  C   UNL     1      50.352  54.270  19.042  1.00  0.00    +0.046 A 
ATOM      8  C   UNL     1      51.657  54.277  19.561  1.00  0.00    -0.027 A 
ATOM      9  C   UNL     1      51.961  55.169  20.610  1.00  0.00    +0.006 A 
ATOM     10  C   UNL     1      51.016  56.078  21.090  1.00  0.00    +0.010 A 
ATOM     11  C   UNL     1      49.425  55.217  19.517  1.00  0.00    +0.036 A 
ATOM     12  C   UNL     1      49.735  56.128  20.539  1.00  0.00    -0.001 A 
ATOM     13  C   UNL     1      52.781  53.417  19.059  1.00  0.00    +0.046 C 
BRANCH  12  14
ATOM     14  C   UNL     1      48.707  57.131  21.019  1.00  0.00    +0.072 C 
ATOM     15  O   UNL     1      49.071  57.936  21.934  1.00  0.00    -0.545 OA
ATOM     16  O   UNL     1      47.556  57.091  20.479  1.00  0.00    -0.545 OA
ENDBRANCH  12  14
ENDBRANCH   1   7
BRANCH   4  17
ATOM     17  C   UNL     1      49.218  50.214  16.445  1.00  0.00    +0.081 C 
ATOM     18  C   UNL     1      50.007  49.888  15.173  1.00  0.00    +0.031 C 
BRANCH  17  19
ATOM     19  C   UNL     1      47.724  49.859  16.301  1.00  0.00    +0.027 C 
BRANCH  19  20
ATOM     20  C   UNL     1      46.975  49.684  17.639  1.00  0.00    -0.015 C 
ATOM     21  C   UNL     1      47.598  48.627  18.549  1.00  0.00    +0.007 C 
ATOM     22  C   UNL     1      45.510  49.326  17.366  1.00  0.00    +0.007 C 
ENDBRANCH  19  20
ENDBRANCH  17  19
ENDBRANCH   4  17
TORSDOF 5
ENDMDL
MODEL 3
REMARK VINA RESULT:    -7.100      3.579      8.432
REMARK INTER + INTRA:          -9.836
REMARK INTER:                  -9.250
REMARK INTRA:                  -0.587
REMARK UNBOUND:                -0.661
REMARK SMILES Cc1ccc(C(=O)[O-])cc1NC(=O)N[C@H](C)CC(C)C
REMARK SMILES IDX 11 1 12 2 13 3 14 4 10 7 2 8 3 9 4 10 9 11 5 12 1 13 6 14
REMARK SMILES IDX 7 15 8 16 15 17 16 18 17 19 18 20 19 21 20 22
REMARK H PARENT 11 5 14 6
ROOT
ATOM      1  N   UNL     1      49.512  50.401  17.859  1.00  0.00    -0.308 N 
ATOM      2  C   UNL     1      49.754  51.756  17.857  1.00  0.00    +0.319 C 
ATOM      3  O   UNL     1      49.127  52.631  17.279  1.00  0.00    -0.248 OA
ATOM      4  N   UNL     1      50.847  52.033  18.663  1.00  0.00    -0.335 N 
ATOM      5  H   UNL     1      49.745  49.967  18.741  1.00  0.00    +0.171 HD
ATOM      6  H   UNL     1      51.511  51.274  18.720  1.00  0.00    +0.165 HD
ENDROOT
BRANCH   1   7
ATOM      7  C   UNL     1      48.589  49.670  17.079  1.00  0.00    +0.046 A 
ATOM      8  C   UNL     1      48.726  49.337  15.721  1.00  0.00    -0.027 A 
ATOM      9  C   UNL     1      47.687  48.618  15.095  1.00  0.00    +0.006 A 
ATOM     10  C   UNL     1      46.570  48.181  15.809  1.00  0.00    +0.010 A 
ATOM     11  C   UNL     1      47.471  49.191  17.788  1.00  0.00    +0.036 A 
ATOM     12  C   UNL     1      46.451  48.447  17.174  1.00  0.00    -0.001 A 
ATOM     13  C   UNL     1      49.924  49.666  14.877  1.00  0.00    +0.046 C 
BRANCH  12  14
ATOM     14  C   UNL     1      45.266  47.951  17.976  1.00  0.00    +0.072 C 
ATOM     15  O   UNL     1      44.111  48.149  17.480  1.00  0.00    -0.545 OA
ATOM     16  O   UNL     1      45.511  47.378  19.085  1.00  0.00    -0.545 OA
ENDBRANCH  12  14
ENDBRANCH   1   7
BRANCH   4  17
ATOM     17  C   UNL     1      51.382  53.388  18.769  1.00  0.00    +0.081 C 
ATOM     18  C   UNL     1      52.911  53.329  18.842  1.00  0.00    +0.031 C 
BRANCH  17  19
ATOM     19  C   UNL     1      50.774  54.084  20.004  1.00  0.00    +0.027 C 
BRANCH  19  20
ATOM     20  C   UNL     1      51.632  53.984  21.283  1.00  0.00    -0.015 C 
ATOM     21  C   UNL     1      51.241  52.816  22.187  1.00  0.00    +0.007 C 
ATOM     22  C   UNL     1      51.537  55.295  22.070  1.00  0.00    +0.007 C 
ENDBRANCH  19  20
ENDBRANCH  17  19
ENDBRANCH   4  17
TORSDOF 5
ENDMDL
MODEL 4
REMARK VINA RESULT:    -7.094      2.678      4.176
REMARK INTER + INTRA:          -9.829
REMARK INTER:                  -9.389
REMARK INTRA:                  -0.439
REMARK UNBOUND:                -0.661
REMARK SMILES Cc1ccc(C(=O)[O-])cc1NC(=O)N[C@H](C)CC(C)C
REMARK SMILES IDX 11 1 12 2 13 3 14 4 10 7 2 8 3 9 4 10 9 11 5 12 1 13 6 14
REMARK SMILES IDX 7 15 8 16 15 17 16 18 17 19 18 20 19 21 20 22
REMARK H PARENT 11 5 14 6
ROOT
ATOM      1  N   UNL     1      50.815  52.014  18.002  1.00  0.00    -0.308 N 
ATOM      2  C   UNL     1      50.074  50.936  17.578  1.00  0.00    +0.319 C 
ATOM      3  O   UNL     1      49.341  50.218  18.243  1.00  0.00    -0.248 OA
ATOM      4  N   UNL     1      50.244  50.763  16.213  1.00  0.00    -0.335 N 
ATOM      5  H   UNL     1      50.884  52.738  17.299  1.00  0.00    +0.171 HD
ATOM      6  H   UNL     1      51.138  51.086  15.873  1.00  0.00    +0.165 HD
ENDROOT
BRANCH   1   7
ATOM      7  C   UNL     1      51.041  52.464  19.322  1.00  0.00    +0.046 A 
ATOM      8  C   UNL     1      51.704  51.759  20.340  1.00  0.00    -0.027 A 
ATOM      9  C   UNL     1      51.816  52.358  21.612  1.00  0.00    +0.006 A 
ATOM     10  C   UNL     1      51.345  53.650  21.853  1.00  0.00    +0.010 A 
ATOM     11  C   UNL     1      50.602  53.778  19.577  1.00  0.00    +0.036 A 
ATOM     12  C   UNL     1      50.744  54.389  20.832  1.00  0.00    -0.001 A 
ATOM     13  C   UNL     1      52.337  50.409  20.171  1.00  0.00    +0.046 C 
BRANCH  12  14
ATOM     14  C   UNL     1      50.258  55.805  21.063  1.00  0.00    +0.072 C 
ATOM     15  O   UNL     1      49.096  56.093  20.632  1.00  0.00    -0.545 OA
ATOM     16  O   UNL     1      51.047  56.601  21.663  1.00  0.00    -0.545 OA
ENDBRANCH  12  14
ENDBRANCH   1   7
BRANCH   4  17
ATOM     17  C   UNL     1      49.641  49.630  15.515  1.00  0.00    +0.081 C 
ATOM     18  C   UNL     1      50.441  49.330  14.244  1.00  0.00    +0.031 C 
BRANCH  17  19
ATOM     19  C   UNL     1      48.164  49.947  15.204  1.00  0.00    +0.027 C 
BRANCH  19  20
ATOM     20  C   UNL     1      47.166  48.863  15.660  1.00  0.00    -0.015 C 
ATOM     21  C   UNL     1      46.339  48.278  14.516  1.00  0.00    +0.007 C 
ATOM     22  C   UNL     1      46.229  49.441  16.726  1.00  0.00    +0.007 C 
ENDBRANCH  19  20
ENDBRANCH  17  19
ENDBRANCH   4  17
TORSDOF 5
ENDMDL
MODEL 5
REMARK VINA RESULT:    -6.901      3.216      4.868
REMARK INTER + INTRA:          -9.579
REMARK INTER:                  -8.973
REMARK INTRA:                  -0.607
REMARK UNBOUND:                -0.661
REMARK SMILES Cc1ccc(C(=O)[O-])cc1NC(=O)N[C@H](C)CC(C)C
REMARK SMILES IDX 11 1 12 2 13 3 14 4 10 7 2 8 3 9 4 10 9 11 5 12 1 13 6 14
REMARK SMILES IDX 7 15 8 16 15 17 16 18 17 19 18 20 19 21 20 22
REMARK H PARENT 11 5 14 6
ROOT
ATOM      1  N   UNL     1      49.386  51.185  17.341  1.00  0.00    -0.308 N 
ATOM      2  C   UNL     1      48.336  50.301  17.239  1.00  0.00    +0.319 C 
ATOM      3  O   UNL     1      47.190  50.446  17.638  1.00  0.00    -0.248 OA
ATOM      4  N   UNL     1      48.750  49.165  16.561  1.00  0.00    -0.335 N 
ATOM      5  H   UNL     1      50.008  51.142  16.546  1.00  0.00    +0.171 HD
ATOM      6  H   UNL     1      49.734  48.965  16.670  1.00  0.00    +0.165 HD
ENDROOT
BRANCH   1   7
ATOM      7  C   UNL     1      49.449  52.398  18.062  1.00  0.00    +0.046 A 
ATOM      8  C   UNL     1      48.830  53.609  17.709  1.00  0.00    -0.027 A 
ATOM      9  C   UNL     1      49.023  54.732  18.541  1.00  0.00    +0.006 A 
ATOM     10  C   UNL     1      49.754  54.643  19.727  1.00  0.00    +0.010 A 
ATOM     11  C   UNL     1      50.154  52.322  19.279  1.00  0.00    +0.036 A 
ATOM     12  C   UNL     1      50.319  53.430  20.124  1.00  0.00    -0.001 A 
ATOM     13  C   UNL     1      47.942  53.798  16.514  1.00  0.00    +0.046 C 
BRANCH  12  14
ATOM     14  C   UNL     1      51.084  53.304  21.425  1.00  0.00    +0.072 C 
ATOM     15  O   UNL     1      51.944  54.206  21.677  1.00  0.00    -0.545 OA
ATOM     16  O   UNL     1      50.816  52.304  22.164  1.00  0.00    -0.545 OA
ENDBRANCH  12  14
ENDBRANCH   1   7
BRANCH   4  17
ATOM     17  C   UNL     1      47.858  48.021  16.392  1.00  0.00    +0.081 C 
ATOM     18  C   UNL     1      48.647  46.724  16.593  1.00  0.00    +0.031 C 
BRANCH  17  19
ATOM     19  C   UNL     1      47.203  48.085  14.996  1.00  0.00    +0.027 C 
BRANCH  19  20
ATOM     20  C   UNL     1      45.768  47.522  14.936  1.00  0.00    -0.015 C 
ATOM     21  C   UNL     1      45.076  47.765  13.595  1.00  0.00    +0.007 C 
ATOM     22  C   UNL     1      44.928  48.131  16.064  1.00  0.00    +0.007 C 
ENDBRANCH  19  20
ENDBRANCH  17  19
ENDBRANCH   4  17
TORSDOF 5
ENDMDL
