MODEL 1
REMARK VINA RESULT:    -7.463      0.000      0.000
REMARK INTER + INTRA:         -11.268
REMARK INTER:                 -10.517
REMARK INTRA:                  -0.750
REMARK UNBOUND:                -0.750
REMARK SMILES CCN(CCO)c1ncnc(Nc2ccc3c(c2)OCO3)c1N
REMARK SMILES IDX 3 1 2 2 1 3 4 4 5 5 6 6 7 8 22 9 8 10 11 11 9 12 10 13 23 14
REMARK SMILES IDX 12 17 13 19 14 20 18 21 15 22 17 23 16 24 19 25 21 26 20 27
REMARK H PARENT 6 7 23 15 23 16 12 18
ROOT
ATOM      1  N   UNL     1      51.467  56.717  21.222  1.00  0.00    -0.353 N 
ENDROOT
BRANCH   1   2
ATOM      2  C   UNL     1      50.405  57.145  22.155  1.00  0.00    +0.115 C 
ATOM      3  C   UNL     1      49.152  57.539  21.383  1.00  0.00    +0.027 C 
ENDBRANCH   1   2
BRANCH   1   4
ATOM      4  C   UNL     1      52.827  57.164  21.634  1.00  0.00    +0.146 C 
BRANCH   4   5
ATOM      5  C   UNL     1      53.057  58.653  21.328  1.00  0.00    +0.177 C 
BRANCH   5   6
ATOM      6  O   UNL     1      53.156  59.402  22.539  1.00  0.00    -0.395 OA
ATOM      7  H   UNL     1      52.317  59.905  22.587  1.00  0.00    +0.210 HD
ENDBRANCH   5   6
ENDBRANCH   4   5
ENDBRANCH   1   4
BRANCH   1   8
ATOM      8  C   UNL     1      51.426  55.283  21.156  1.00  0.00    +0.157 A 
ATOM      9  C   UNL     1      51.025  54.715  19.938  1.00  0.00    +0.118 A 
ATOM     10  N   UNL     1      51.743  54.546  22.233  1.00  0.00    -0.217 NA
ATOM     11  C   UNL     1      51.071  53.318  19.867  1.00  0.00    +0.159 A 
ATOM     12  C   UNL     1      51.680  53.218  22.067  1.00  0.00    +0.226 A 
ATOM     13  N   UNL     1      51.360  52.564  20.942  1.00  0.00    -0.217 NA
BRANCH   9  14
ATOM     14  N   UNL     1      50.808  55.528  18.786  1.00  0.00    -0.393 N 
ATOM     15  H   UNL     1      50.842  54.962  17.940  1.00  0.00    +0.156 HD
ATOM     16  H   UNL     1      49.908  56.002  18.894  1.00  0.00    +0.156 HD
ENDBRANCH   9  14
BRANCH  11  17
ATOM     17  N   UNL     1      50.790  52.731  18.600  1.00  0.00    -0.338 N 
ATOM     18  H   UNL     1      51.648  52.286  18.281  1.00  0.00    +0.168 HD
BRANCH  17  19
ATOM     19  C   UNL     1      49.635  52.038  18.177  1.00  0.00    +0.044 A 
ATOM     20  C   UNL     1      48.597  52.663  17.452  1.00  0.00    +0.030 A 
ATOM     21  C   UNL     1      49.573  50.647  18.375  1.00  0.00    +0.076 A 
ATOM     22  C   UNL     1      47.489  51.942  16.984  1.00  0.00    +0.053 A 
ATOM     23  C   UNL     1      48.472  49.959  17.904  1.00  0.00    +0.167 A 
ATOM     24  C   UNL     1      47.457  50.590  17.231  1.00  0.00    +0.165 A 
ATOM     25  O   UNL     1      48.259  48.621  18.031  1.00  0.00    -0.454 OA
ATOM     26  O   UNL     1      46.474  49.732  16.850  1.00  0.00    -0.454 OA
ATOM     27  C   UNL     1      46.985  48.487  17.368  1.00  0.00    +0.468 C 
ENDBRANCH  17  19
ENDBRANCH  11  17
ENDBRANCH   1   8
TORSDOF 8
ENDMDL
MODEL 2
REMARK VINA RESULT:    -7.426      3.213      4.463
REMARK INTER + INTRA:         -11.216
REMARK INTER:                 -10.250
REMARK INTRA:                  -0.966
REMARK UNBOUND:                -0.750
REMARK SMILES CCN(CCO)c1ncnc(Nc2ccc3c(c2)OCO3)c1N
REMARK SMILES IDX 3 1 2 2 1 3 4 4 5 5 6 6 7 8 22 9 8 10 11 11 9 12 10 13 23 14
REMARK SMILES IDX 12 17 13 19 14 20 18 21 15 22 17 23 16 24 19 25 21 26 20 27
REMARK H PARENT 6 7 23 15 23 16 12 18
ROOT
ATOM      1  N   UNL     1      51.059  52.673  19.856  1.00  0.00    -0.353 N 
ENDROOT
BRANCH   1   2
ATOM      2  C   UNL     1      50.368  53.333  20.983  1.00  0.00    +0.115 C 
ATOM      3  C   UNL     1      50.037  54.776  20.625  1.00  0.00    +0.027 C 
ENDBRANCH   1   2
BRANCH   1   4
ATOM      4  C   UNL     1      52.542  52.793  19.925  1.00  0.00    +0.146 C 
BRANCH   4   5
ATOM      5  C   UNL     1      53.126  53.416  18.647  1.00  0.00    +0.177 C 
BRANCH   5   6
ATOM      6  O   UNL     1      53.073  52.484  17.567  1.00  0.00    -0.395 OA
ATOM      7  H   UNL     1      52.385  52.839  16.968  1.00  0.00    +0.210 HD
ENDBRANCH   5   6
ENDBRANCH   4   5
ENDBRANCH   1   4
BRANCH   1   8
ATOM      8  C   UNL     1      50.683  51.287  19.876  1.00  0.00    +0.157 A 
ATOM      9  C   UNL     1      50.093  50.774  18.711  1.00  0.00    +0.118 A 
ATOM     10  N   UNL     1      50.879  50.547  20.979  1.00  0.00    -0.217 NA
ATOM     11  C   UNL     1      49.809  49.403  18.720  1.00  0.00    +0.159 A 
ATOM     12  C   UNL     1      50.500  49.265  20.893  1.00  0.00    +0.226 A 
ATOM     13  N   UNL     1      49.974  48.653  19.823  1.00  0.00    -0.217 NA
BRANCH   9  14
ATOM     14  N   UNL     1      50.007  51.560  17.525  1.00  0.00    -0.393 N 
ATOM     15  H   UNL     1      50.186  52.541  17.735  1.00  0.00    +0.156 HD
ATOM     16  H   UNL     1      50.672  51.186  16.844  1.00  0.00    +0.156 HD
ENDBRANCH   9  14
BRANCH  11  17
ATOM     17  N   UNL     1      49.329  48.841  17.502  1.00  0.00    -0.338 N 
ATOM     18  H   UNL     1      49.975  48.098  17.243  1.00  0.00    +0.168 HD
BRANCH  17  19
ATOM     19  C   UNL     1      48.000  48.559  17.116  1.00  0.00    +0.044 A 
ATOM     20  C   UNL     1      46.921  48.596  18.026  1.00  0.00    +0.030 A 
ATOM     21  C   UNL     1      47.722  48.358  15.753  1.00  0.00    +0.076 A 
ATOM     22  C   UNL     1      45.600  48.379  17.610  1.00  0.00    +0.053 A 
ATOM     23  C   UNL     1      46.414  48.146  15.367  1.00  0.00    +0.167 A 
ATOM     24  C   UNL     1      45.382  48.152  16.271  1.00  0.00    +0.165 A 
ATOM     25  O   UNL     1      45.988  47.922  14.095  1.00  0.00    -0.454 OA
ATOM     26  O   UNL     1      44.175  47.931  15.686  1.00  0.00    -0.454 OA
ATOM     27  C   UNL     1      44.568  47.776  14.307  1.00  0.00    +0.468 C 
ENDBRANCH  17  19
ENDBRANCH  11  17
ENDBRANCH   1   8
TORSDOF 8
ENDMDL
MODEL 3
REMARK VINA RESULT:    -7.273      2.570      8.092
REMARK INTER + INTRA:         -11.000
REMARK INTER:                 -10.320
REMARK INTRA:                  -0.680
REMARK UNBOUND:                -0.750
REMARK SMILES CCN(CCO)c1ncnc(Nc2ccc3c(c2)OCO3)c1N
REMARK SMILES IDX 3 1 2 2 1 3 4 4 5 5 6 6 7 8 22 9 8 10 11 11 9 12 10 13 23 14
REMARK SMILES IDX 12 17 13 19 14 20 18 21 15 22 17 23 16 24 19 25 21 26 20 27
REMARK H PARENT 6 7 23 15 23 16 12 18
ROOT
ATOM      1  N   UNL     1      48.760  49.843  15.894  1.00  0.00    -0.353 N 
ENDROOT
BRANCH   1   2
ATOM      2  C   UNL     1      47.341  49.435  15.939  1.00  0.00    +0.115 C 
ATOM      3  C   UNL     1      47.079  48.324  14.931  1.00  0.00    +0.027 C 
ENDBRANCH   1   2
BRANCH   1   4
ATOM      4  C   UNL     1      49.277  50.016  14.508  1.00  0.00    +0.146 C 
BRANCH   4   5
ATOM      5  C   UNL     1      50.666  49.381  14.332  1.00  0.00    +0.177 C 
BRANCH   5   6
ATOM      6  O   UNL     1      51.680  50.386  14.343  1.00  0.00    -0.395 OA
ATOM      7  H   UNL     1      51.201  51.222  14.176  1.00  0.00    +0.210 HD
ENDBRANCH   5   6
ENDBRANCH   4   5
ENDBRANCH   1   4
BRANCH   1   8
ATOM      8  C   UNL     1      48.873  51.081  16.613  1.00  0.00    +0.157 A 
ATOM      9  C   UNL     1      49.774  51.111  17.688  1.00  0.00    +0.118 A 
ATOM     10  N   UNL     1      48.124  52.139  16.263  1.00  0.00    -0.217 NA
ATOM     11  C   UNL     1      49.931  52.348  18.324  1.00  0.00    +0.159 A 
ATOM     12  C   UNL     1      48.308  53.248  16.992  1.00  0.00    +0.226 A 
ATOM     13  N   UNL     1      49.171  53.409  18.004  1.00  0.00    -0.217 NA
BRANCH   9  14
ATOM     14  N   UNL     1      50.633  50.004  17.955  1.00  0.00    -0.393 N 
ATOM     15  H   UNL     1      50.101  49.227  18.344  1.00  0.00    +0.156 HD
ATOM     16  H   UNL     1      51.105  49.748  17.084  1.00  0.00    +0.156 HD
ENDBRANCH   9  14
BRANCH  11  17
ATOM     17  N   UNL     1      50.934  52.427  19.332  1.00  0.00    -0.338 N 
ATOM     18  H   UNL     1      51.752  51.936  18.977  1.00  0.00    +0.168 HD
BRANCH  17  19
ATOM     19  C   UNL     1      51.276  53.517  20.162  1.00  0.00    +0.044 A 
ATOM     20  C   UNL     1      51.091  53.494  21.561  1.00  0.00    +0.030 A 
ATOM     21  C   UNL     1      51.943  54.615  19.590  1.00  0.00    +0.076 A 
ATOM     22  C   UNL     1      51.499  54.560  22.375  1.00  0.00    +0.053 A 
ATOM     23  C   UNL     1      52.336  55.652  20.412  1.00  0.00    +0.167 A 
ATOM     24  C   UNL     1      52.117  55.627  21.766  1.00  0.00    +0.165 A 
ATOM     25  O   UNL     1      52.974  56.785  20.010  1.00  0.00    -0.454 OA
ATOM     26  O   UNL     1      52.584  56.740  22.390  1.00  0.00    -0.454 OA
ATOM     27  C   UNL     1      53.118  57.475  21.269  1.00  0.00    +0.468 C 
ENDBRANCH  17  19
ENDBRANCH  11  17
ENDBRANCH   1   8
TORSDOF 8
ENDMDL
MODEL 4
REMARK VINA RESULT:    -7.089      2.604      8.177
REMARK INTER + INTRA:         -10.740
REMARK INTER:                 -10.056
REMARK INTRA:                  -0.684
REMARK UNBOUND:                -0.750
REMARK SMILES CCN(CCO)c1ncnc(Nc2ccc3c(c2)OCO3)c1N
REMARK SMILES IDX 3 1 2 2 1 3 4 4 5 5 6 6 7 8 22 9 8 10 11 11 9 12 10 13 23 14
REMARK SMILES IDX 12 17 13 19 14 20 18 21 15 22 17 23 16 24 19 25 21 26 20 27
REMARK H PARENT 6 7 23 15 23 16 12 18
ROOT
ATOM      1  N   UNL     1      47.164  48.923  17.428  1.00  0.00    -0.353 N 
ENDROOT
BRANCH   1   2
ATOM      2  C   UNL     1      47.555  48.015  16.331  1.00  0.00    +0.115 C 
ATOM      3  C   UNL     1      47.051  48.553  14.997  1.00  0.00    +0.027 C 
ENDBRANCH   1   2
BRANCH   1   4
ATOM      4  C   UNL     1      46.370  48.250  18.493  1.00  0.00    +0.146 C 
BRANCH   4   5
ATOM      5  C   UNL     1      45.250  47.375  17.906  1.00  0.00    +0.177 C 
BRANCH   5   6
ATOM      6  O   UNL     1      44.571  46.669  18.944  1.00  0.00    -0.395 OA
ATOM      7  H   UNL     1      43.871  47.285  19.244  1.00  0.00    +0.210 HD
ENDBRANCH   5   6
ENDBRANCH   4   5
ENDBRANCH   1   4
BRANCH   1   8
ATOM      8  C   UNL     1      48.371  49.461  17.989  1.00  0.00    +0.157 A 
ATOM      9  C   UNL     1      48.699  50.780  17.642  1.00  0.00    +0.118 A 
ATOM     10  N   UNL     1      49.142  48.707  18.789  1.00  0.00    -0.217 NA
ATOM     11  C   UNL     1      49.834  51.314  18.263  1.00  0.00    +0.159 A 
ATOM     12  C   UNL     1      50.243  49.303  19.266  1.00  0.00    +0.226 A 
ATOM     13  N   UNL     1      50.631  50.566  19.045  1.00  0.00    -0.217 NA
BRANCH   9  14
ATOM     14  N   UNL     1      47.798  51.585  16.884  1.00  0.00    -0.393 N 
ATOM     15  H   UNL     1      48.261  52.433  16.565  1.00  0.00    +0.156 HD
ATOM     16  H   UNL     1      47.446  51.023  16.104  1.00  0.00    +0.156 HD
ENDBRANCH   9  14
BRANCH  11  17
ATOM     17  N   UNL     1      50.108  52.691  18.021  1.00  0.00    -0.338 N 
ATOM     18  H   UNL     1      49.673  52.930  17.132  1.00  0.00    +0.168 HD
BRANCH  17  19
ATOM     19  C   UNL     1      50.104  53.772  18.930  1.00  0.00    +0.044 A 
ATOM     20  C   UNL     1      48.941  54.523  19.210  1.00  0.00    +0.030 A 
ATOM     21  C   UNL     1      51.266  54.029  19.679  1.00  0.00    +0.076 A 
ATOM     22  C   UNL     1      48.941  55.549  20.166  1.00  0.00    +0.053 A 
ATOM     23  C   UNL     1      51.241  55.044  20.614  1.00  0.00    +0.167 A 
ATOM     24  C   UNL     1      50.111  55.786  20.848  1.00  0.00    +0.165 A 
ATOM     25  O   UNL     1      52.284  55.422  21.402  1.00  0.00    -0.454 OA
ATOM     26  O   UNL     1      50.297  56.728  21.810  1.00  0.00    -0.454 OA
ATOM     27  C   UNL     1      51.680  56.498  22.150  1.00  0.00    +0.468 C 
ENDBRANCH  17  19
ENDBRANCH  11  17
ENDBRANCH   1   8
TORSDOF 8
ENDMDL
MODEL 5
REMARK VINA RESULT:    -6.662      2.685      8.599
REMARK INTER + INTRA:         -10.139
REMARK INTER:                  -9.602
REMARK INTRA:                  -0.536
REMARK UNBOUND:                -0.750
REMARK SMILES CCN(CCO)c1ncnc(Nc2ccc3c(c2)OCO3)c1N
REMARK SMILES IDX 3 1 2 2 1 3 4 4 5 5 6 6 7 8 22 9 8 10 11 11 9 12 10 13 23 14
REMARK SMILES IDX 12 17 13 19 14 20 18 21 15 22 17 23 16 24 19 25 21 26 20 27
REMARK H PARENT 6 7 23 15 23 16 12 18
ROOT
ATOM      1  N   UNL     1      47.452  48.178  17.978  1.00  0.00    -0.353 N 
ENDROOT
BRANCH   1   2
ATOM      2  C   UNL     1      46.448  48.172  19.062  1.00  0.00    +0.115 C 
ATOM      3  C   UNL     1      45.139  47.572  18.565  1.00  0.00    +0.027 C 
ENDBRANCH   1   2
BRANCH   1   4
ATOM      4  C   UNL     1      46.948  47.583  16.709  1.00  0.00    +0.146 C 
BRANCH   4   5
ATOM      5  C   UNL     1      47.433  46.136  16.522  1.00  0.00    +0.177 C 
BRANCH   5   6
ATOM      6  O   UNL     1      46.340  45.282  16.186  1.00  0.00    -0.395 OA
ATOM      7  H   UNL     1      46.685  44.711  15.469  1.00  0.00    +0.210 HD
ENDBRANCH   5   6
ENDBRANCH   4   5
ENDBRANCH   1   4
BRANCH   1   8
ATOM      8  C   UNL     1      47.835  49.544  17.757  1.00  0.00    +0.157 A 
ATOM      9  C   UNL     1      49.019  49.978  18.371  1.00  0.00    +0.118 A 
ATOM     10  N   UNL     1      47.065  50.351  17.009  1.00  0.00    -0.217 NA
ATOM     11  C   UNL     1      49.419  51.286  18.077  1.00  0.00    +0.159 A 
ATOM     12  C   UNL     1      47.513  51.604  16.859  1.00  0.00    +0.226 A 
ATOM     13  N   UNL     1      48.648  52.116  17.353  1.00  0.00    -0.217 NA
BRANCH   9  14
ATOM     14  N   UNL     1      49.866  49.061  19.061  1.00  0.00    -0.393 N 
ATOM     15  H   UNL     1      49.702  49.112  20.064  1.00  0.00    +0.156 HD
ATOM     16  H   UNL     1      49.691  48.123  18.691  1.00  0.00    +0.156 HD
ENDBRANCH   9  14
BRANCH  11  17
ATOM     17  N   UNL     1      50.683  51.700  18.588  1.00  0.00    -0.338 N 
ATOM     18  H   UNL     1      51.294  51.847  17.787  1.00  0.00    +0.168 HD
BRANCH  17  19
ATOM     19  C   UNL     1      50.965  52.586  19.651  1.00  0.00    +0.044 A 
ATOM     20  C   UNL     1      50.967  52.175  21.001  1.00  0.00    +0.030 A 
ATOM     21  C   UNL     1      51.384  53.893  19.346  1.00  0.00    +0.076 A 
ATOM     22  C   UNL     1      51.315  53.053  22.037  1.00  0.00    +0.053 A 
ATOM     23  C   UNL     1      51.722  54.739  20.383  1.00  0.00    +0.167 A 
ATOM     24  C   UNL     1      51.685  54.332  21.692  1.00  0.00    +0.165 A 
ATOM     25  O   UNL     1      52.129  56.031  20.252  1.00  0.00    -0.454 OA
ATOM     26  O   UNL     1      52.061  55.314  22.554  1.00  0.00    -0.454 OA
ATOM     27  C   UNL     1      52.332  56.391  21.634  1.00  0.00    +0.468 C 
ENDBRANCH  17  19
ENDBRANCH  11  17
ENDBRANCH   1   8
TORSDOF 8
ENDMDL
