MODEL 1
REMARK VINA RESULT:    -9.335      0.000      0.000
REMARK INTER + INTRA:         -13.509
REMARK INTER:                 -12.336
REMARK INTRA:                  -1.173
REMARK UNBOUND:                -1.173
REMARK SMILES Nc1c(NNC(=O)c2ccc(F)cc2)ncnc1Nc1ccc(Cl)cn1
REMARK SMILES IDX 3 1 2 2 18 3 17 4 16 5 15 6 4 7 5 9 6 10 7 11 8 13 9 14
REMARK SMILES IDX 10 15 11 16 14 17 13 18 12 19 1 20 19 23 20 25 21 26 26 27
REMARK SMILES IDX 22 28 25 29 23 30 24 31
REMARK H PARENT 4 8 5 12 1 21 1 22 19 24
ROOT
ATOM      1  C   UNL     1      51.467  51.151  19.608  1.00  0.00    +0.173 A 
ATOM      2  C   UNL     1      51.280  52.526  19.390  1.00  0.00    +0.120 A 
ATOM      3  C   UNL     1      51.587  53.350  20.478  1.00  0.00    +0.160 A 
ATOM      4  N   UNL     1      51.960  52.851  21.676  1.00  0.00    -0.217 NA
ATOM      5  C   UNL     1      52.032  51.518  21.780  1.00  0.00    +0.226 A 
ATOM      6  N   UNL     1      51.820  50.630  20.805  1.00  0.00    -0.215 NA
ENDROOT
BRANCH   1   7
ATOM      7  N   UNL     1      51.363  50.281  18.480  1.00  0.00    -0.280 N 
ATOM      8  H   UNL     1      51.511  50.841  17.631  1.00  0.00    +0.190 HD
BRANCH   7   9
ATOM      9  N   UNL     1      50.130  49.603  18.460  1.00  0.00    -0.264 N 
ATOM     10  C   UNL     1      49.118  50.125  17.678  1.00  0.00    +0.269 C 
ATOM     11  O   UNL     1      49.284  51.040  16.876  1.00  0.00    -0.267 OA
ATOM     12  H   UNL     1      50.010  48.916  19.198  1.00  0.00    +0.191 HD
BRANCH  10  13
ATOM     13  C   UNL     1      47.779  49.493  17.829  1.00  0.00    +0.041 A 
ATOM     14  C   UNL     1      46.750  49.899  16.962  1.00  0.00    +0.017 A 
ATOM     15  C   UNL     1      45.480  49.326  17.060  1.00  0.00    +0.040 A 
ATOM     16  C   UNL     1      45.239  48.361  18.031  1.00  0.00    +0.123 A 
ATOM     17  C   UNL     1      47.514  48.532  18.821  1.00  0.00    +0.017 A 
ATOM     18  C   UNL     1      46.241  47.964  18.916  1.00  0.00    +0.040 A 
ATOM     19  F   UNL     1      44.022  47.810  18.124  1.00  0.00    -0.207 F 
ENDBRANCH  10  13
ENDBRANCH   7   9
ENDBRANCH   1   7
BRANCH   2  20
ATOM     20  N   UNL     1      51.049  53.010  18.070  1.00  0.00    -0.393 N 
ATOM     21  H   UNL     1      51.489  52.381  17.401  1.00  0.00    +0.156 HD
ATOM     22  H   UNL     1      51.502  53.931  17.992  1.00  0.00    +0.156 HD
ENDBRANCH   2  20
BRANCH   3  23
ATOM     23  N   UNL     1      51.642  54.752  20.420  1.00  0.00    -0.323 N 
ATOM     24  H   UNL     1      52.312  55.021  21.137  1.00  0.00    +0.170 HD
BRANCH  23  25
ATOM     25  C   UNL     1      50.595  55.689  20.348  1.00  0.00    +0.131 A 
ATOM     26  C   UNL     1      50.345  56.478  21.472  1.00  0.00    +0.049 A 
ATOM     27  N   UNL     1      49.892  55.860  19.208  1.00  0.00    -0.238 NA
ATOM     28  C   UNL     1      49.325  57.431  21.442  1.00  0.00    +0.026 A 
ATOM     29  C   UNL     1      48.893  56.782  19.202  1.00  0.00    +0.134 A 
ATOM     30  C   UNL     1      48.574  57.579  20.287  1.00  0.00    +0.059 A 
ATOM     31 Cl   UNL     1      47.283  58.706  20.218  1.00  0.00    -0.083 Cl
ENDBRANCH  23  25
ENDBRANCH   3  23
TORSDOF 6
ENDMDL
MODEL 2
REMARK VINA RESULT:    -9.250      3.678      7.412
REMARK INTER + INTRA:         -13.397
REMARK INTER:                 -12.615
REMARK INTRA:                  -0.781
REMARK UNBOUND:                -1.173
REMARK SMILES Nc1c(NNC(=O)c2ccc(F)cc2)ncnc1Nc1ccc(Cl)cn1
REMARK SMILES IDX 3 1 2 2 18 3 17 4 16 5 15 6 4 7 5 9 6 10 7 11 8 13 9 14
REMARK SMILES IDX 10 15 11 16 14 17 13 18 12 19 1 20 19 23 20 25 21 26 26 27
REMARK SMILES IDX 22 28 25 29 23 30 24 31
REMARK H PARENT 4 8 5 12 1 21 1 22 19 24
ROOT
ATOM      1  C   UNL     1      51.679  51.851  18.893  1.00  0.00    +0.173 A 
ATOM      2  C   UNL     1      50.850  50.832  18.396  1.00  0.00    +0.120 A 
ATOM      3  C   UNL     1      50.829  49.657  19.155  1.00  0.00    +0.160 A 
ATOM      4  N   UNL     1      51.610  49.489  20.243  1.00  0.00    -0.217 NA
ATOM      5  C   UNL     1      52.413  50.509  20.575  1.00  0.00    +0.226 A 
ATOM      6  N   UNL     1      52.484  51.696  19.969  1.00  0.00    -0.215 NA
ENDROOT
BRANCH   1   7
ATOM      7  N   UNL     1      51.590  53.137  18.277  1.00  0.00    -0.280 N 
ATOM      8  H   UNL     1      52.496  53.343  17.836  1.00  0.00    +0.190 HD
BRANCH   7   9
ATOM      9  N   UNL     1      51.211  54.129  19.199  1.00  0.00    -0.264 N 
ATOM     10  C   UNL     1      49.876  54.485  19.255  1.00  0.00    +0.269 C 
ATOM     11  O   UNL     1      48.987  53.870  18.673  1.00  0.00    -0.267 OA
ATOM     12  H   UNL     1      51.980  54.668  19.586  1.00  0.00    +0.191 HD
BRANCH  10  13
ATOM     13  C   UNL     1      49.546  55.665  20.100  1.00  0.00    +0.041 A 
ATOM     14  C   UNL     1      50.484  56.077  21.062  1.00  0.00    +0.017 A 
ATOM     15  C   UNL     1      50.221  57.185  21.871  1.00  0.00    +0.040 A 
ATOM     16  C   UNL     1      49.019  57.868  21.724  1.00  0.00    +0.123 A 
ATOM     17  C   UNL     1      48.325  56.352  19.978  1.00  0.00    +0.017 A 
ATOM     18  C   UNL     1      48.067  57.458  20.791  1.00  0.00    +0.040 A 
ATOM     19  F   UNL     1      48.768  58.933  22.497  1.00  0.00    -0.207 F 
ENDBRANCH  10  13
ENDBRANCH   7   9
ENDBRANCH   1   7
BRANCH   2  20
ATOM     20  N   UNL     1      49.926  51.115  17.349  1.00  0.00    -0.393 N 
ATOM     21  H   UNL     1      50.408  51.607  16.600  1.00  0.00    +0.156 HD
ATOM     22  H   UNL     1      49.204  51.741  17.731  1.00  0.00    +0.156 HD
ENDBRANCH   2  20
BRANCH   3  23
ATOM     23  N   UNL     1      49.941  48.590  18.940  1.00  0.00    -0.323 N 
ATOM     24  H   UNL     1      50.535  47.781  18.771  1.00  0.00    +0.170 HD
BRANCH  23  25
ATOM     25  C   UNL     1      48.787  48.532  18.137  1.00  0.00    +0.131 A 
ATOM     26  C   UNL     1      47.561  48.836  18.732  1.00  0.00    +0.049 A 
ATOM     27  N   UNL     1      48.870  48.250  16.820  1.00  0.00    -0.238 NA
ATOM     28  C   UNL     1      46.391  48.805  17.971  1.00  0.00    +0.026 A 
ATOM     29  C   UNL     1      47.718  48.210  16.098  1.00  0.00    +0.134 A 
ATOM     30  C   UNL     1      46.468  48.474  16.628  1.00  0.00    +0.059 A 
ATOM     31 Cl   UNL     1      45.052  48.382  15.665  1.00  0.00    -0.083 Cl
ENDBRANCH  23  25
ENDBRANCH   3  23
TORSDOF 6
ENDMDL
MODEL 3
REMARK VINA RESULT:    -9.216      1.641      2.257
REMARK INTER + INTRA:         -13.353
REMARK INTER:                 -12.332
REMARK INTRA:                  -1.020
REMARK UNBOUND:                -1.173
REMARK SMILES Nc1c(NNC(=O)c2ccc(F)cc2)ncnc1Nc1ccc(Cl)cn1
REMARK SMILES IDX 3 1 2 2 18 3 17 4 16 5 15 6 4 7 5 9 6 10 7 11 8 13 9 14
REMARK SMILES IDX 10 15 11 16 14 17 13 18 12 19 1 20 19 23 20 25 21 26 26 27
REMARK SMILES IDX 22 28 25 29 23 30 24 31
REMARK H PARENT 4 8 5 12 1 21 1 22 19 24
ROOT
ATOM      1  C   UNL     1      52.104  51.044  19.186  1.00  0.00    +0.173 A 
ATOM      2  C   UNL     1      51.775  51.751  20.354  1.00  0.00    +0.120 A 
ATOM      3  C   UNL     1      52.103  53.111  20.340  1.00  0.00    +0.160 A 
ATOM      4  N   UNL     1      52.758  53.683  19.307  1.00  0.00    -0.217 NA
ATOM      5  C   UNL     1      53.082  52.886  18.281  1.00  0.00    +0.226 A 
ATOM      6  N   UNL     1      52.778  51.593  18.150  1.00  0.00    -0.215 NA
ENDROOT
BRANCH   1   7
ATOM      7  N   UNL     1      51.617  49.707  19.062  1.00  0.00    -0.280 N 
ATOM      8  H   UNL     1      52.397  49.110  18.756  1.00  0.00    +0.190 HD
BRANCH   7   9
ATOM      9  N   UNL     1      50.518  49.633  18.187  1.00  0.00    -0.264 N 
ATOM     10  C   UNL     1      49.330  49.130  18.682  1.00  0.00    +0.269 C 
ATOM     11  O   UNL     1      49.133  48.907  19.874  1.00  0.00    -0.267 OA
ATOM     12  H   UNL     1      50.750  49.738  17.204  1.00  0.00    +0.191 HD
BRANCH  10  13
ATOM     13  C   UNL     1      48.252  48.890  17.684  1.00  0.00    +0.041 A 
ATOM     14  C   UNL     1      46.937  49.246  18.027  1.00  0.00    +0.017 A 
ATOM     15  C   UNL     1      45.894  49.048  17.118  1.00  0.00    +0.040 A 
ATOM     16  C   UNL     1      46.168  48.485  15.877  1.00  0.00    +0.123 A 
ATOM     17  C   UNL     1      48.510  48.301  16.433  1.00  0.00    +0.017 A 
ATOM     18  C   UNL     1      47.463  48.104  15.530  1.00  0.00    +0.040 A 
ATOM     19  F   UNL     1      45.169  48.297  15.005  1.00  0.00    -0.207 F 
ENDBRANCH  10  13
ENDBRANCH   7   9
ENDBRANCH   1   7
BRANCH   2  20
ATOM     20  N   UNL     1      50.940  51.148  21.338  1.00  0.00    -0.393 N 
ATOM     21  H   UNL     1      51.445  51.096  22.220  1.00  0.00    +0.156 HD
ATOM     22  H   UNL     1      50.734  50.189  21.028  1.00  0.00    +0.156 HD
ENDBRANCH   2  20
BRANCH   3  23
ATOM     23  N   UNL     1      51.705  54.033  21.322  1.00  0.00    -0.323 N 
ATOM     24  H   UNL     1      51.516  53.474  22.150  1.00  0.00    +0.170 HD
BRANCH  23  25
ATOM     25  C   UNL     1      50.795  55.103  21.231  1.00  0.00    +0.131 A 
ATOM     26  C   UNL     1      49.657  54.927  20.442  1.00  0.00    +0.049 A 
ATOM     27  N   UNL     1      50.985  56.240  21.933  1.00  0.00    -0.238 NA
ATOM     28  C   UNL     1      48.718  55.955  20.333  1.00  0.00    +0.026 A 
ATOM     29  C   UNL     1      50.069  57.236  21.804  1.00  0.00    +0.134 A 
ATOM     30  C   UNL     1      48.934  57.140  21.019  1.00  0.00    +0.059 A 
ATOM     31 Cl   UNL     1      47.830  58.446  20.881  1.00  0.00    -0.083 Cl
ENDBRANCH  23  25
ENDBRANCH   3  23
TORSDOF 6
ENDMDL
MODEL 4
REMARK VINA RESULT:    -8.253      4.270      8.404
REMARK INTER + INTRA:         -12.080
REMARK INTER:                 -11.433
REMARK INTRA:                  -0.646
REMARK UNBOUND:                -1.173
REMARK SMILES Nc1c(NNC(=O)c2ccc(F)cc2)ncnc1Nc1ccc(Cl)cn1
REMARK SMILES IDX 3 1 2 2 18 3 17 4 16 5 15 6 4 7 5 9 6 10 7 11 8 13 9 14
REMARK SMILES IDX 10 15 11 16 14 17 13 18 12 19 1 20 19 23 20 25 21 26 26 27
REMARK SMILES IDX 22 28 25 29 23 30 24 31
REMARK H PARENT 4 8 5 12 1 21 1 22 19 24
ROOT
ATOM      1  C   UNL     1      49.724  52.095  17.686  1.00  0.00    +0.173 A 
ATOM      2  C   UNL     1      49.455  50.731  17.890  1.00  0.00    +0.120 A 
ATOM      3  C   UNL     1      48.326  50.240  17.226  1.00  0.00    +0.160 A 
ATOM      4  N   UNL     1      47.510  51.038  16.504  1.00  0.00    -0.217 NA
ATOM      5  C   UNL     1      47.833  52.337  16.445  1.00  0.00    +0.226 A 
ATOM      6  N   UNL     1      48.909  52.915  16.984  1.00  0.00    -0.215 NA
ENDROOT
BRANCH   1   7
ATOM      7  N   UNL     1      50.966  52.605  18.172  1.00  0.00    -0.280 N 
ATOM      8  H   UNL     1      51.373  51.905  18.806  1.00  0.00    +0.190 HD
BRANCH   7   9
ATOM      9  N   UNL     1      50.804  53.855  18.797  1.00  0.00    -0.264 N 
ATOM     10  C   UNL     1      50.452  53.870  20.132  1.00  0.00    +0.269 C 
ATOM     11  O   UNL     1      50.439  52.867  20.841  1.00  0.00    -0.267 OA
ATOM     12  H   UNL     1      50.734  54.644  18.160  1.00  0.00    +0.191 HD
BRANCH  10  13
ATOM     13  C   UNL     1      50.105  55.200  20.706  1.00  0.00    +0.041 A 
ATOM     14  C   UNL     1      48.914  55.816  20.283  1.00  0.00    +0.017 A 
ATOM     15  C   UNL     1      48.543  57.058  20.802  1.00  0.00    +0.040 A 
ATOM     16  C   UNL     1      49.368  57.685  21.729  1.00  0.00    +0.123 A 
ATOM     17  C   UNL     1      50.940  55.856  21.627  1.00  0.00    +0.017 A 
ATOM     18  C   UNL     1      50.564  57.100  22.141  1.00  0.00    +0.040 A 
ATOM     19  F   UNL     1      49.011  58.876  22.228  1.00  0.00    -0.207 F 
ENDBRANCH  10  13
ENDBRANCH   7   9
ENDBRANCH   1   7
BRANCH   2  20
ATOM     20  N   UNL     1      50.430  49.901  18.515  1.00  0.00    -0.393 N 
ATOM     21  H   UNL     1      49.959  49.187  19.066  1.00  0.00    +0.156 HD
ATOM     22  H   UNL     1      50.979  50.491  19.155  1.00  0.00    +0.156 HD
ENDBRANCH   2  20
BRANCH   3  23
ATOM     23  N   UNL     1      47.981  48.880  17.148  1.00  0.00    -0.323 N 
ATOM     24  H   UNL     1      48.817  48.414  16.805  1.00  0.00    +0.170 HD
BRANCH  23  25
ATOM     25  C   UNL     1      46.826  48.278  16.616  1.00  0.00    +0.131 A 
ATOM     26  C   UNL     1      45.683  48.238  17.416  1.00  0.00    +0.049 A 
ATOM     27  N   UNL     1      46.806  47.808  15.351  1.00  0.00    -0.238 NA
ATOM     28  C   UNL     1      44.509  47.663  16.925  1.00  0.00    +0.026 A 
ATOM     29  C   UNL     1      45.659  47.238  14.895  1.00  0.00    +0.134 A 
ATOM     30  C   UNL     1      44.499  47.141  15.641  1.00  0.00    +0.059 A 
ATOM     31 Cl   UNL     1      43.093  46.387  15.012  1.00  0.00    -0.083 Cl
ENDBRANCH  23  25
ENDBRANCH   3  23
TORSDOF 6
ENDMDL
MODEL 5
REMARK VINA RESULT:    -7.239      1.888      3.026
REMARK INTER + INTRA:         -10.740
REMARK INTER:                 -10.793
REMARK INTRA:                   0.053
REMARK UNBOUND:                -1.173
REMARK SMILES Nc1c(NNC(=O)c2ccc(F)cc2)ncnc1Nc1ccc(Cl)cn1
REMARK SMILES IDX 3 1 2 2 18 3 17 4 16 5 15 6 4 7 5 9 6 10 7 11 8 13 9 14
REMARK SMILES IDX 10 15 11 16 14 17 13 18 12 19 1 20 19 23 20 25 21 26 26 27
REMARK SMILES IDX 22 28 25 29 23 30 24 31
REMARK H PARENT 4 8 5 12 1 21 1 22 19 24
ROOT
ATOM      1  C   UNL     1      50.024  53.121  18.714  1.00  0.00    +0.173 A 
ATOM      2  C   UNL     1      49.139  53.942  17.996  1.00  0.00    +0.120 A 
ATOM      3  C   UNL     1      49.077  55.272  18.426  1.00  0.00    +0.160 A 
ATOM      4  N   UNL     1      49.761  55.713  19.504  1.00  0.00    -0.217 NA
ATOM      5  C   UNL     1      50.515  54.814  20.150  1.00  0.00    +0.226 A 
ATOM      6  N   UNL     1      50.701  53.537  19.808  1.00  0.00    -0.215 NA
ENDROOT
BRANCH   1   7
ATOM      7  N   UNL     1      50.278  51.813  18.200  1.00  0.00    -0.280 N 
ATOM      8  H   UNL     1      50.459  51.896  17.191  1.00  0.00    +0.190 HD
BRANCH   7   9
ATOM      9  N   UNL     1      49.219  50.930  18.478  1.00  0.00    -0.264 N 
ATOM     10  C   UNL     1      48.587  50.322  17.410  1.00  0.00    +0.269 C 
ATOM     11  O   UNL     1      49.004  50.375  16.256  1.00  0.00    -0.267 OA
ATOM     12  H   UNL     1      48.854  50.988  19.423  1.00  0.00    +0.191 HD
BRANCH  10  13
ATOM     13  C   UNL     1      47.356  49.549  17.729  1.00  0.00    +0.041 A 
ATOM     14  C   UNL     1      47.421  48.587  18.753  1.00  0.00    +0.017 A 
ATOM     15  C   UNL     1      46.288  47.845  19.095  1.00  0.00    +0.040 A 
ATOM     16  C   UNL     1      45.099  48.057  18.405  1.00  0.00    +0.123 A 
ATOM     17  C   UNL     1      46.153  49.736  17.027  1.00  0.00    +0.017 A 
ATOM     18  C   UNL     1      45.023  48.990  17.371  1.00  0.00    +0.040 A 
ATOM     19  F   UNL     1      44.012  47.347  18.734  1.00  0.00    -0.207 F 
ENDBRANCH  10  13
ENDBRANCH   7   9
ENDBRANCH   1   7
BRANCH   2  20
ATOM     20  N   UNL     1      48.574  53.479  16.773  1.00  0.00    -0.393 N 
ATOM     21  H   UNL     1      48.604  54.228  16.084  1.00  0.00    +0.156 HD
ATOM     22  H   UNL     1      47.587  53.247  16.952  1.00  0.00    +0.156 HD
ENDBRANCH   2  20
BRANCH   3  23
ATOM     23  N   UNL     1      48.400  56.296  17.743  1.00  0.00    -0.323 N 
ATOM     24  H   UNL     1      48.909  56.414  16.870  1.00  0.00    +0.170 HD
BRANCH  23  25
ATOM     25  C   UNL     1      47.940  57.538  18.218  1.00  0.00    +0.131 A 
ATOM     26  C   UNL     1      47.369  58.419  17.297  1.00  0.00    +0.049 A 
ATOM     27  N   UNL     1      47.993  57.844  19.531  1.00  0.00    -0.238 NA
ATOM     28  C   UNL     1      46.884  59.657  17.725  1.00  0.00    +0.026 A 
ATOM     29  C   UNL     1      47.530  59.059  19.928  1.00  0.00    +0.134 A 
ATOM     30  C   UNL     1      46.977  59.990  19.067  1.00  0.00    +0.059 A 
ATOM     31 Cl   UNL     1      46.435  61.516  19.630  1.00  0.00    -0.083 Cl
ENDBRANCH  23  25
ENDBRANCH   3  23
TORSDOF 6
ENDMDL
