MODEL 1
REMARK VINA RESULT:    -7.684      0.000      0.000
REMARK INTER + INTRA:         -10.618
REMARK INTER:                 -10.154
REMARK INTRA:                  -0.464
REMARK UNBOUND:                -0.464
REMARK SMILES CC(C)C[C@@H](CO)NC(=O)c1ccc2c(c1)NC(=O)CS2
REMARK SMILES IDX 5 1 4 2 2 3 1 4 3 5 6 6 7 7 8 9 9 10 10 11 11 13 12 14 16 15
REMARK SMILES IDX 13 16 15 17 14 18 17 19 21 20 18 21 20 22 19 23
REMARK H PARENT 7 8 8 12 17 24
ROOT
ATOM      1  C   UNL     1      51.510  50.843  19.857  1.00  0.00    +0.108 C 
ENDROOT
BRANCH   1   2
ATOM      2  C   UNL     1      51.332  51.384  21.293  1.00  0.00    +0.030 C 
BRANCH   2   3
ATOM      3  C   UNL     1      50.696  52.785  21.444  1.00  0.00    -0.015 C 
ATOM      4  C   UNL     1      51.536  53.718  22.316  1.00  0.00    +0.007 C 
ATOM      5  C   UNL     1      50.361  53.456  20.114  1.00  0.00    +0.007 C 
ENDBRANCH   2   3
ENDBRANCH   1   2
BRANCH   1   6
ATOM      6  C   UNL     1      52.757  49.935  19.770  1.00  0.00    +0.180 C 
BRANCH   6   7
ATOM      7  O   UNL     1      52.427  48.572  20.018  1.00  0.00    -0.394 OA
ATOM      8  H   UNL     1      52.611  48.086  19.194  1.00  0.00    +0.210 HD
ENDBRANCH   6   7
ENDBRANCH   1   6
BRANCH   1   9
ATOM      9  N   UNL     1      50.328  50.114  19.409  1.00  0.00    -0.347 N 
ATOM     10  C   UNL     1      49.775  50.341  18.167  1.00  0.00    +0.251 C 
ATOM     11  O   UNL     1      50.204  51.183  17.385  1.00  0.00    -0.269 OA
ATOM     12  H   UNL     1      49.928  49.426  20.031  1.00  0.00    +0.164 HD
BRANCH  10  13
ATOM     13  C   UNL     1      48.585  49.525  17.800  1.00  0.00    +0.041 A 
ATOM     14  C   UNL     1      47.790  48.883  18.756  1.00  0.00    +0.015 A 
ATOM     15  C   UNL     1      48.282  49.382  16.439  1.00  0.00    +0.041 A 
ATOM     16  C   UNL     1      46.691  48.120  18.350  1.00  0.00    +0.018 A 
ATOM     17  C   UNL     1      47.171  48.635  16.035  1.00  0.00    +0.055 A 
ATOM     18  C   UNL     1      46.371  47.998  16.993  1.00  0.00    +0.031 A 
ATOM     19  N   UNL     1      46.926  48.517  14.659  1.00  0.00    -0.324 N 
ATOM     20  S   UNL     1      45.021  46.933  16.534  1.00  0.00    -0.114 SA
ATOM     21  C   UNL     1      45.812  47.977  14.077  1.00  0.00    +0.234 C 
ATOM     22  C   UNL     1      44.609  47.671  14.939  1.00  0.00    +0.175 C 
ATOM     23  O   UNL     1      45.770  47.865  12.850  1.00  0.00    -0.274 OA
ATOM     24  H   UNL     1      47.630  48.833  14.003  1.00  0.00    +0.170 HD
ENDBRANCH  10  13
ENDBRANCH   1   9
TORSDOF 6
ENDMDL
MODEL 2
REMARK VINA RESULT:    -7.560      3.821      8.102
REMARK INTER + INTRA:         -10.454
REMARK INTER:                  -9.850
REMARK INTRA:                  -0.605
REMARK UNBOUND:                -0.464
REMARK SMILES CC(C)C[C@@H](CO)NC(=O)c1ccc2c(c1)NC(=O)CS2
REMARK SMILES IDX 5 1 4 2 2 3 1 4 3 5 6 6 7 7 8 9 9 10 10 11 11 13 12 14 16 15
REMARK SMILES IDX 13 16 15 17 14 18 17 19 21 20 18 21 20 22 19 23
REMARK H PARENT 7 8 8 12 17 24
ROOT
ATOM      1  C   UNL     1      49.126  50.061  16.596  1.00  0.00    +0.108 C 
ENDROOT
BRANCH   1   2
ATOM      2  C   UNL     1      47.739  49.406  16.422  1.00  0.00    +0.030 C 
BRANCH   2   3
ATOM      3  C   UNL     1      46.776  49.464  17.630  1.00  0.00    -0.015 C 
ATOM      4  C   UNL     1      45.331  49.147  17.243  1.00  0.00    +0.007 C 
ATOM      5  C   UNL     1      47.214  48.599  18.810  1.00  0.00    +0.007 C 
ENDBRANCH   2   3
ENDBRANCH   1   2
BRANCH   1   6
ATOM      6  C   UNL     1      49.782  50.316  15.219  1.00  0.00    +0.180 C 
BRANCH   6   7
ATOM      7  O   UNL     1      51.180  50.046  15.251  1.00  0.00    -0.394 OA
ATOM      8  H   UNL     1      51.451  50.084  16.186  1.00  0.00    +0.210 HD
ENDBRANCH   6   7
ENDBRANCH   1   6
BRANCH   1   9
ATOM      9  N   UNL     1      49.039  51.309  17.347  1.00  0.00    -0.347 N 
ATOM     10  C   UNL     1      50.126  51.814  18.027  1.00  0.00    +0.251 C 
ATOM     11  O   UNL     1      51.208  51.240  18.080  1.00  0.00    -0.269 OA
ATOM     12  H   UNL     1      48.158  51.804  17.348  1.00  0.00    +0.164 HD
BRANCH  10  13
ATOM     13  C   UNL     1      49.935  53.106  18.740  1.00  0.00    +0.041 A 
ATOM     14  C   UNL     1      48.731  53.818  18.696  1.00  0.00    +0.015 A 
ATOM     15  C   UNL     1      51.022  53.629  19.454  1.00  0.00    +0.041 A 
ATOM     16  C   UNL     1      48.614  55.033  19.378  1.00  0.00    +0.018 A 
ATOM     17  C   UNL     1      50.898  54.834  20.152  1.00  0.00    +0.055 A 
ATOM     18  C   UNL     1      49.690  55.544  20.114  1.00  0.00    +0.031 A 
ATOM     19  N   UNL     1      52.023  55.313  20.838  1.00  0.00    -0.324 N 
ATOM     20  S   UNL     1      49.512  57.141  20.875  1.00  0.00    -0.114 SA
ATOM     21  C   UNL     1      52.056  56.371  21.704  1.00  0.00    +0.234 C 
ATOM     22  C   UNL     1      50.753  56.973  22.176  1.00  0.00    +0.175 C 
ATOM     23  O   UNL     1      53.139  56.731  22.172  1.00  0.00    -0.274 OA
ATOM     24  H   UNL     1      52.921  54.869  20.685  1.00  0.00    +0.170 HD
ENDBRANCH  10  13
ENDBRANCH   1   9
TORSDOF 6
ENDMDL
MODEL 3
REMARK VINA RESULT:    -7.410      2.198      2.756
REMARK INTER + INTRA:         -10.256
REMARK INTER:                  -9.593
REMARK INTRA:                  -0.663
REMARK UNBOUND:                -0.464
REMARK SMILES CC(C)C[C@@H](CO)NC(=O)c1ccc2c(c1)NC(=O)CS2
REMARK SMILES IDX 5 1 4 2 2 3 1 4 3 5 6 6 7 7 8 9 9 10 10 11 11 13 12 14 16 15
REMARK SMILES IDX 13 16 15 17 14 18 17 19 21 20 18 21 20 22 19 23
REMARK H PARENT 7 8 8 12 17 24
ROOT
ATOM      1  C   UNL     1      51.493  52.168  20.470  1.00  0.00    +0.108 C 
ENDROOT
BRANCH   1   2
ATOM      2  C   UNL     1      50.892  53.333  21.285  1.00  0.00    +0.030 C 
BRANCH   2   3
ATOM      3  C   UNL     1      50.712  54.684  20.554  1.00  0.00    -0.015 C 
ATOM      4  C   UNL     1      51.671  54.843  19.374  1.00  0.00    +0.007 C 
ATOM      5  C   UNL     1      49.277  54.961  20.115  1.00  0.00    +0.007 C 
ENDBRANCH   2   3
ENDBRANCH   1   2
BRANCH   1   6
ATOM      6  C   UNL     1      52.205  51.163  21.404  1.00  0.00    +0.180 C 
BRANCH   6   7
ATOM      7  O   UNL     1      53.134  50.355  20.688  1.00  0.00    -0.394 OA
ATOM      8  H   UNL     1      53.469  49.690  21.317  1.00  0.00    +0.210 HD
ENDBRANCH   6   7
ENDBRANCH   1   6
BRANCH   1   9
ATOM      9  N   UNL     1      50.474  51.482  19.683  1.00  0.00    -0.347 N 
ATOM     10  C   UNL     1      50.744  51.006  18.419  1.00  0.00    +0.251 C 
ATOM     11  O   UNL     1      51.827  51.157  17.863  1.00  0.00    -0.269 OA
ATOM     12  H   UNL     1      49.560  51.355  20.094  1.00  0.00    +0.164 HD
BRANCH  10  13
ATOM     13  C   UNL     1      49.640  50.300  17.713  1.00  0.00    +0.041 A 
ATOM     14  C   UNL     1      49.520  50.296  16.319  1.00  0.00    +0.015 A 
ATOM     15  C   UNL     1      48.676  49.645  18.492  1.00  0.00    +0.041 A 
ATOM     16  C   UNL     1      48.454  49.625  15.712  1.00  0.00    +0.018 A 
ATOM     17  C   UNL     1      47.621  48.957  17.884  1.00  0.00    +0.055 A 
ATOM     18  C   UNL     1      47.505  48.947  16.487  1.00  0.00    +0.031 A 
ATOM     19  N   UNL     1      46.682  48.332  18.715  1.00  0.00    -0.324 N 
ATOM     20  S   UNL     1      46.118  48.198  15.663  1.00  0.00    -0.114 SA
ATOM     21  C   UNL     1      45.686  47.481  18.319  1.00  0.00    +0.234 C 
ATOM     22  C   UNL     1      45.691  46.956  16.902  1.00  0.00    +0.175 C 
ATOM     23  O   UNL     1      44.879  47.069  19.155  1.00  0.00    -0.274 OA
ATOM     24  H   UNL     1      46.698  48.521  19.710  1.00  0.00    +0.170 HD
ENDBRANCH  10  13
ENDBRANCH   1   9
TORSDOF 6
ENDMDL
MODEL 4
REMARK VINA RESULT:    -7.178      2.661      3.171
REMARK INTER + INTRA:          -9.950
REMARK INTER:                  -9.437
REMARK INTRA:                  -0.513
REMARK UNBOUND:                -0.464
REMARK SMILES CC(C)C[C@@H](CO)NC(=O)c1ccc2c(c1)NC(=O)CS2
REMARK SMILES IDX 5 1 4 2 2 3 1 4 3 5 6 6 7 7 8 9 9 10 10 11 11 13 12 14 16 15
REMARK SMILES IDX 13 16 15 17 14 18 17 19 21 20 18 21 20 22 19 23
REMARK H PARENT 7 8 8 12 17 24
ROOT
ATOM      1  C   UNL     1      50.886  53.029  18.536  1.00  0.00    +0.108 C 
ENDROOT
BRANCH   1   2
ATOM      2  C   UNL     1      50.303  53.601  19.847  1.00  0.00    +0.030 C 
BRANCH   2   3
ATOM      3  C   UNL     1      49.850  55.080  19.829  1.00  0.00    -0.015 C 
ATOM      4  C   UNL     1      48.340  55.227  19.644  1.00  0.00    +0.007 C 
ATOM      5  C   UNL     1      50.318  55.882  21.041  1.00  0.00    +0.007 C 
ENDBRANCH   2   3
ENDBRANCH   1   2
BRANCH   1   6
ATOM      6  C   UNL     1      52.330  52.525  18.759  1.00  0.00    +0.180 C 
BRANCH   6   7
ATOM      7  O   UNL     1      53.129  52.702  17.593  1.00  0.00    -0.394 OA
ATOM      8  H   UNL     1      53.578  51.853  17.431  1.00  0.00    +0.210 HD
ENDBRANCH   6   7
ENDBRANCH   1   6
BRANCH   1   9
ATOM      9  N   UNL     1      50.056  51.952  18.006  1.00  0.00    -0.347 N 
ATOM     10  C   UNL     1      49.064  52.200  17.082  1.00  0.00    +0.251 C 
ATOM     11  O   UNL     1      48.788  53.326  16.681  1.00  0.00    -0.269 OA
ATOM     12  H   UNL     1      50.235  51.011  18.327  1.00  0.00    +0.164 HD
BRANCH  10  13
ATOM     13  C   UNL     1      48.294  51.026  16.589  1.00  0.00    +0.041 A 
ATOM     14  C   UNL     1      48.450  50.515  15.296  1.00  0.00    +0.015 A 
ATOM     15  C   UNL     1      47.361  50.442  17.456  1.00  0.00    +0.041 A 
ATOM     16  C   UNL     1      47.689  49.416  14.884  1.00  0.00    +0.018 A 
ATOM     17  C   UNL     1      46.615  49.330  17.050  1.00  0.00    +0.055 A 
ATOM     18  C   UNL     1      46.776  48.814  15.758  1.00  0.00    +0.031 A 
ATOM     19  N   UNL     1      45.689  48.797  17.957  1.00  0.00    -0.324 N 
ATOM     20  S   UNL     1      45.768  47.484  15.143  1.00  0.00    -0.114 SA
ATOM     21  C   UNL     1      44.994  47.627  17.814  1.00  0.00    +0.234 C 
ATOM     22  C   UNL     1      45.385  46.673  16.710  1.00  0.00    +0.175 C 
ATOM     23  O   UNL     1      44.148  47.324  18.658  1.00  0.00    -0.274 OA
ATOM     24  H   UNL     1      45.472  49.311  18.803  1.00  0.00    +0.170 HD
ENDBRANCH  10  13
ENDBRANCH   1   9
TORSDOF 6
ENDMDL
MODEL 5
REMARK VINA RESULT:    -7.091      3.818      5.928
REMARK INTER + INTRA:          -9.834
REMARK INTER:                  -9.400
REMARK INTRA:                  -0.435
REMARK UNBOUND:                -0.464
REMARK SMILES CC(C)C[C@@H](CO)NC(=O)c1ccc2c(c1)NC(=O)CS2
REMARK SMILES IDX 5 1 4 2 2 3 1 4 3 5 6 6 7 7 8 9 9 10 10 11 11 13 12 14 16 15
REMARK SMILES IDX 13 16 15 17 14 18 17 19 21 20 18 21 20 22 19 23
REMARK H PARENT 7 8 8 12 17 24
ROOT
ATOM      1  C   UNL     1      51.021  57.176  20.760  1.00  0.00    +0.108 C 
ENDROOT
BRANCH   1   2
ATOM      2  C   UNL     1      49.679  57.914  20.956  1.00  0.00    +0.030 C 
BRANCH   2   3
ATOM      3  C   UNL     1      48.414  57.240  20.375  1.00  0.00    -0.015 C 
ATOM      4  C   UNL     1      47.131  57.979  20.754  1.00  0.00    +0.007 C 
ATOM      5  C   UNL     1      48.474  57.016  18.865  1.00  0.00    +0.007 C 
ENDBRANCH   2   3
ENDBRANCH   1   2
BRANCH   1   6
ATOM      6  C   UNL     1      52.041  57.611  21.837  1.00  0.00    +0.180 C 
BRANCH   6   7
ATOM      7  O   UNL     1      52.520  56.494  22.581  1.00  0.00    -0.394 OA
ATOM      8  H   UNL     1      52.337  55.702  22.045  1.00  0.00    +0.210 HD
ENDBRANCH   6   7
ENDBRANCH   1   6
BRANCH   1   9
ATOM      9  N   UNL     1      50.847  55.728  20.791  1.00  0.00    -0.347 N 
ATOM     10  C   UNL     1      51.394  54.920  19.818  1.00  0.00    +0.251 C 
ATOM     11  O   UNL     1      52.017  55.355  18.856  1.00  0.00    -0.269 OA
ATOM     12  H   UNL     1      50.321  55.328  21.555  1.00  0.00    +0.164 HD
BRANCH  10  13
ATOM     13  C   UNL     1      51.177  53.454  19.959  1.00  0.00    +0.041 A 
ATOM     14  C   UNL     1      51.597  52.737  21.084  1.00  0.00    +0.015 A 
ATOM     15  C   UNL     1      50.551  52.778  18.902  1.00  0.00    +0.041 A 
ATOM     16  C   UNL     1      51.375  51.358  21.156  1.00  0.00    +0.018 A 
ATOM     17  C   UNL     1      50.312  51.403  18.983  1.00  0.00    +0.055 A 
ATOM     18  C   UNL     1      50.727  50.686  20.113  1.00  0.00    +0.031 A 
ATOM     19  N   UNL     1      49.694  50.780  17.889  1.00  0.00    -0.324 N 
ATOM     20  S   UNL     1      50.564  48.918  20.218  1.00  0.00    -0.114 SA
ATOM     21  C   UNL     1      49.229  49.495  17.843  1.00  0.00    +0.234 C 
ATOM     22  C   UNL     1      49.143  48.700  19.125  1.00  0.00    +0.175 C 
ATOM     23  O   UNL     1      48.781  49.055  16.782  1.00  0.00    -0.274 OA
ATOM     24  H   UNL     1      49.583  51.296  17.025  1.00  0.00    +0.170 HD
ENDBRANCH  10  13
ENDBRANCH   1   9
TORSDOF 6
ENDMDL
