MODEL 1
REMARK VINA RESULT:    -7.903      0.000      0.000
REMARK INTER + INTRA:         -12.125
REMARK INTER:                 -11.138
REMARK INTRA:                  -0.988
REMARK UNBOUND:                -0.988
REMARK SMILES CCOc1cc(CCC(=O)N2CCCC[C@H]2C)cc(N)c1O
REMARK SMILES IDX 7 1 6 2 4 3 5 4 21 5 19 6 18 7 3 8 2 9 1 10 22 11 20 13 8 16
REMARK SMILES IDX 9 17 10 18 11 19 12 20 16 21 13 22 15 23 14 24 17 25
REMARK H PARENT 22 12 20 14 20 15
ROOT
ATOM      1  C   UNL     1      49.508  51.806  17.391  1.00  0.00    +0.045 C 
ENDROOT
BRANCH   1   2
ATOM      2  C   UNL     1      50.360  51.548  18.610  1.00  0.00    -0.042 A 
ATOM      3  C   UNL     1      51.178  52.247  20.795  1.00  0.00    +0.163 A 
ATOM      4  C   UNL     1      50.390  52.477  19.664  1.00  0.00    +0.054 A 
ATOM      5  C   UNL     1      51.919  51.059  20.866  1.00  0.00    +0.181 A 
ATOM      6  C   UNL     1      51.841  50.081  19.864  1.00  0.00    +0.078 A 
ATOM      7  C   UNL     1      51.101  50.363  18.715  1.00  0.00    +0.033 A 
BRANCH   3   8
ATOM      8  O   UNL     1      51.311  53.109  21.852  1.00  0.00    -0.490 OA
BRANCH   8   9
ATOM      9  C   UNL     1      51.622  54.468  21.563  1.00  0.00    +0.226 C 
ATOM     10  C   UNL     1      51.673  55.227  22.876  1.00  0.00    +0.049 C 
ENDBRANCH   8   9
ENDBRANCH   3   8
BRANCH   5  11
ATOM     11  O   UNL     1      52.757  50.859  21.937  1.00  0.00    -0.503 OA
ATOM     12  H   UNL     1      52.326  50.195  22.494  1.00  0.00    +0.293 HD
ENDBRANCH   5  11
BRANCH   6  13
ATOM     13  N   UNL     1      52.632  48.916  19.894  1.00  0.00    -0.396 N 
ATOM     14  H   UNL     1      53.523  49.025  19.418  1.00  0.00    +0.156 HD
ATOM     15  H   UNL     1      52.118  48.100  19.572  1.00  0.00    +0.156 HD
ENDBRANCH   6  13
ENDBRANCH   1   2
BRANCH   1  16
ATOM     16  C   UNL     1      49.751  50.751  16.310  1.00  0.00    +0.105 C 
BRANCH  16  17
ATOM     17  C   UNL     1      48.449  50.168  15.791  1.00  0.00    +0.223 C 
ATOM     18  O   UNL     1      48.125  50.286  14.609  1.00  0.00    -0.275 OA
BRANCH  17  19
ATOM     19  N   UNL     1      47.642  49.506  16.717  1.00  0.00    -0.340 N 
ATOM     20  C   UNL     1      46.246  49.865  16.989  1.00  0.00    +0.120 C 
ATOM     21  C   UNL     1      48.275  48.509  17.599  1.00  0.00    +0.082 C 
ATOM     22  C   UNL     1      45.436  48.689  17.518  1.00  0.00    +0.022 C 
ATOM     23  C   UNL     1      47.532  48.389  18.935  1.00  0.00    +0.025 C 
ATOM     24  C   UNL     1      46.048  48.067  18.771  1.00  0.00    +0.004 C 
ATOM     25  C   UNL     1      48.405  47.155  16.894  1.00  0.00    +0.031 C 
ENDBRANCH  17  19
ENDBRANCH  16  17
ENDBRANCH   1  16
TORSDOF 8
ENDMDL
MODEL 2
REMARK VINA RESULT:    -7.684      2.976      6.906
REMARK INTER + INTRA:         -11.816
REMARK INTER:                 -11.058
REMARK INTRA:                  -0.758
REMARK UNBOUND:                -0.988
REMARK SMILES CCOc1cc(CCC(=O)N2CCCC[C@H]2C)cc(N)c1O
REMARK SMILES IDX 7 1 6 2 4 3 5 4 21 5 19 6 18 7 3 8 2 9 1 10 22 11 20 13 8 16
REMARK SMILES IDX 9 17 10 18 11 19 12 20 16 21 13 22 15 23 14 24 17 25
REMARK H PARENT 22 12 20 14 20 15
ROOT
ATOM      1  C   UNL     1      49.995  53.406  18.298  1.00  0.00    +0.045 C 
ENDROOT
BRANCH   1   2
ATOM      2  C   UNL     1      50.291  52.092  18.979  1.00  0.00    -0.042 A 
ATOM      3  C   UNL     1      49.981  49.682  19.133  1.00  0.00    +0.163 A 
ATOM      4  C   UNL     1      49.714  50.902  18.507  1.00  0.00    +0.054 A 
ATOM      5  C   UNL     1      50.855  49.667  20.230  1.00  0.00    +0.181 A 
ATOM      6  C   UNL     1      51.506  50.830  20.668  1.00  0.00    +0.078 A 
ATOM      7  C   UNL     1      51.172  52.045  20.069  1.00  0.00    +0.033 A 
BRANCH   3   8
ATOM      8  O   UNL     1      49.433  48.476  18.779  1.00  0.00    -0.490 OA
BRANCH   8   9
ATOM      9  C   UNL     1      48.323  48.490  17.887  1.00  0.00    +0.226 C 
ATOM     10  C   UNL     1      47.054  48.460  18.719  1.00  0.00    +0.049 C 
ENDBRANCH   8   9
ENDBRANCH   3   8
BRANCH   5  11
ATOM     11  O   UNL     1      51.063  48.487  20.901  1.00  0.00    -0.503 OA
ATOM     12  H   UNL     1      51.965  48.532  21.250  1.00  0.00    +0.293 HD
ENDBRANCH   5  11
BRANCH   6  13
ATOM     13  N   UNL     1      52.332  50.838  21.808  1.00  0.00    -0.396 N 
ATOM     14  H   UNL     1      51.845  50.565  22.657  1.00  0.00    +0.156 HD
ATOM     15  H   UNL     1      52.826  51.721  21.912  1.00  0.00    +0.156 HD
ENDBRANCH   6  13
ENDBRANCH   1   2
BRANCH   1  16
ATOM     16  C   UNL     1      49.066  54.276  19.147  1.00  0.00    +0.105 C 
BRANCH  16  17
ATOM     17  C   UNL     1      49.452  55.743  19.081  1.00  0.00    +0.223 C 
ATOM     18  O   UNL     1      48.918  56.507  18.277  1.00  0.00    -0.275 OA
BRANCH  17  19
ATOM     19  N   UNL     1      50.443  56.172  19.966  1.00  0.00    -0.340 N 
ATOM     20  C   UNL     1      51.863  56.280  19.612  1.00  0.00    +0.120 C 
ATOM     21  C   UNL     1      50.075  56.357  21.381  1.00  0.00    +0.082 C 
ATOM     22  C   UNL     1      52.598  57.306  20.465  1.00  0.00    +0.022 C 
ATOM     23  C   UNL     1      51.278  56.139  22.306  1.00  0.00    +0.025 C 
ATOM     24  C   UNL     1      52.471  57.029  21.961  1.00  0.00    +0.004 C 
ATOM     25  C   UNL     1      49.422  57.724  21.605  1.00  0.00    +0.031 C 
ENDBRANCH  17  19
ENDBRANCH  16  17
ENDBRANCH   1  16
TORSDOF 8
ENDMDL
MODEL 3
REMARK VINA RESULT:    -7.671      3.092      6.713
REMARK INTER + INTRA:         -11.797
REMARK INTER:                 -10.824
REMARK INTRA:                  -0.973
REMARK UNBOUND:                -0.988
REMARK SMILES CCOc1cc(CCC(=O)N2CCCC[C@H]2C)cc(N)c1O
REMARK SMILES IDX 7 1 6 2 4 3 5 4 21 5 19 6 18 7 3 8 2 9 1 10 22 11 20 13 8 16
REMARK SMILES IDX 9 17 10 18 11 19 12 20 16 21 13 22 15 23 14 24 17 25
REMARK H PARENT 22 12 20 14 20 15
ROOT
ATOM      1  C   UNL     1      52.233  53.439  20.558  1.00  0.00    +0.045 C 
ENDROOT
BRANCH   1   2
ATOM      2  C   UNL     1      51.656  52.145  20.037  1.00  0.00    -0.042 A 
ATOM      3  C   UNL     1      49.965  50.962  18.745  1.00  0.00    +0.163 A 
ATOM      4  C   UNL     1      50.506  52.155  19.228  1.00  0.00    +0.054 A 
ATOM      5  C   UNL     1      50.605  49.755  19.063  1.00  0.00    +0.181 A 
ATOM      6  C   UNL     1      51.798  49.727  19.800  1.00  0.00    +0.078 A 
ATOM      7  C   UNL     1      52.282  50.925  20.328  1.00  0.00    +0.033 A 
BRANCH   3   8
ATOM      8  O   UNL     1      48.824  50.862  17.990  1.00  0.00    -0.490 OA
BRANCH   8   9
ATOM      9  C   UNL     1      48.771  51.596  16.771  1.00  0.00    +0.226 C 
ATOM     10  C   UNL     1      47.644  52.605  16.880  1.00  0.00    +0.049 C 
ENDBRANCH   8   9
ENDBRANCH   3   8
BRANCH   5  11
ATOM     11  O   UNL     1      50.036  48.572  18.658  1.00  0.00    -0.503 OA
ATOM     12  H   UNL     1      49.258  48.443  19.219  1.00  0.00    +0.293 HD
ENDBRANCH   5  11
BRANCH   6  13
ATOM     13  N   UNL     1      52.412  48.519  20.181  1.00  0.00    -0.396 N 
ATOM     14  H   UNL     1      51.915  48.035  20.924  1.00  0.00    +0.156 HD
ATOM     15  H   UNL     1      53.398  48.645  20.393  1.00  0.00    +0.156 HD
ENDBRANCH   6  13
ENDBRANCH   1   2
BRANCH   1  16
ATOM     16  C   UNL     1      51.381  54.011  21.692  1.00  0.00    +0.105 C 
BRANCH  16  17
ATOM     17  C   UNL     1      51.420  55.529  21.714  1.00  0.00    +0.223 C 
ATOM     18  O   UNL     1      52.414  56.134  22.115  1.00  0.00    -0.275 OA
BRANCH  17  19
ATOM     19  N   UNL     1      50.277  56.194  21.269  1.00  0.00    -0.340 N 
ATOM     20  C   UNL     1      49.682  57.345  21.957  1.00  0.00    +0.120 C 
ATOM     21  C   UNL     1      49.522  55.602  20.150  1.00  0.00    +0.082 C 
ATOM     22  C   UNL     1      48.887  58.238  21.013  1.00  0.00    +0.022 C 
ATOM     23  C   UNL     1      48.036  55.972  20.217  1.00  0.00    +0.025 C 
ATOM     24  C   UNL     1      47.794  57.480  20.264  1.00  0.00    +0.004 C 
ATOM     25  C   UNL     1      50.146  55.981  18.804  1.00  0.00    +0.031 C 
ENDBRANCH  17  19
ENDBRANCH  16  17
ENDBRANCH   1  16
TORSDOF 8
ENDMDL
MODEL 4
REMARK VINA RESULT:    -7.561      2.645      7.580
REMARK INTER + INTRA:         -11.643
REMARK INTER:                 -11.032
REMARK INTRA:                  -0.611
REMARK UNBOUND:                -0.988
REMARK SMILES CCOc1cc(CCC(=O)N2CCCC[C@H]2C)cc(N)c1O
REMARK SMILES IDX 7 1 6 2 4 3 5 4 21 5 19 6 18 7 3 8 2 9 1 10 22 11 20 13 8 16
REMARK SMILES IDX 9 17 10 18 11 19 12 20 16 21 13 22 15 23 14 24 17 25
REMARK H PARENT 22 12 20 14 20 15
ROOT
ATOM      1  C   UNL     1      48.471  49.346  18.696  1.00  0.00    +0.045 C 
ENDROOT
BRANCH   1   2
ATOM      2  C   UNL     1      47.206  48.755  18.121  1.00  0.00    -0.042 A 
ATOM      3  C   UNL     1      45.722  48.395  16.225  1.00  0.00    +0.163 A 
ATOM      4  C   UNL     1      46.891  48.937  16.764  1.00  0.00    +0.054 A 
ATOM      5  C   UNL     1      44.881  47.646  17.060  1.00  0.00    +0.181 A 
ATOM      6  C   UNL     1      45.216  47.383  18.397  1.00  0.00    +0.078 A 
ATOM      7  C   UNL     1      46.354  47.990  18.930  1.00  0.00    +0.033 A 
BRANCH   3   8
ATOM      8  O   UNL     1      45.303  48.555  14.929  1.00  0.00    -0.490 OA
BRANCH   8   9
ATOM      9  C   UNL     1      46.102  47.982  13.900  1.00  0.00    +0.226 C 
ATOM     10  C   UNL     1      45.217  47.070  13.071  1.00  0.00    +0.049 C 
ENDBRANCH   8   9
ENDBRANCH   3   8
BRANCH   5  11
ATOM     11  O   UNL     1      43.691  47.176  16.560  1.00  0.00    -0.503 OA
ATOM     12  H   UNL     1      42.996  47.696  16.989  1.00  0.00    +0.293 HD
ENDBRANCH   5  11
BRANCH   6  13
ATOM     13  N   UNL     1      44.348  46.689  19.261  1.00  0.00    -0.396 N 
ATOM     14  H   UNL     1      44.676  45.756  19.495  1.00  0.00    +0.156 HD
ATOM     15  H   UNL     1      43.391  46.688  18.916  1.00  0.00    +0.156 HD
ENDBRANCH   6  13
ENDBRANCH   1   2
BRANCH   1  16
ATOM     16  C   UNL     1      48.844  50.652  17.992  1.00  0.00    +0.105 C 
BRANCH  16  17
ATOM     17  C   UNL     1      50.317  50.981  18.162  1.00  0.00    +0.223 C 
ATOM     18  O   UNL     1      51.132  50.726  17.276  1.00  0.00    -0.275 OA
BRANCH  17  19
ATOM     19  N   UNL     1      50.694  51.572  19.368  1.00  0.00    -0.340 N 
ATOM     20  C   UNL     1      51.084  50.816  20.562  1.00  0.00    +0.120 C 
ATOM     21  C   UNL     1      50.520  53.029  19.509  1.00  0.00    +0.082 C 
ATOM     22  C   UNL     1      52.006  51.610  21.478  1.00  0.00    +0.022 C 
ATOM     23  C   UNL     1      50.294  53.429  20.972  1.00  0.00    +0.025 C 
ATOM     24  C   UNL     1      51.405  52.948  21.905  1.00  0.00    +0.004 C 
ATOM     25  C   UNL     1      51.696  53.787  18.884  1.00  0.00    +0.031 C 
ENDBRANCH  17  19
ENDBRANCH  16  17
ENDBRANCH   1  16
TORSDOF 8
ENDMDL
MODEL 5
REMARK VINA RESULT:    -6.805      3.510      4.816
REMARK INTER + INTRA:         -10.578
REMARK INTER:                  -9.966
REMARK INTRA:                  -0.612
REMARK UNBOUND:                -0.988
REMARK SMILES CCOc1cc(CCC(=O)N2CCCC[C@H]2C)cc(N)c1O
REMARK SMILES IDX 7 1 6 2 4 3 5 4 21 5 19 6 18 7 3 8 2 9 1 10 22 11 20 13 8 16
REMARK SMILES IDX 9 17 10 18 11 19 12 20 16 21 13 22 15 23 14 24 17 25
REMARK H PARENT 22 12 20 14 20 15
ROOT
ATOM      1  C   UNL     1      51.013  53.639  18.946  1.00  0.00    +0.045 C 
ENDROOT
BRANCH   1   2
ATOM      2  C   UNL     1      50.662  54.777  19.874  1.00  0.00    -0.042 A 
ATOM      3  C   UNL     1      49.147  56.564  20.537  1.00  0.00    +0.163 A 
ATOM      4  C   UNL     1      49.477  55.509  19.684  1.00  0.00    +0.054 A 
ATOM      5  C   UNL     1      50.009  56.863  21.601  1.00  0.00    +0.181 A 
ATOM      6  C   UNL     1      51.155  56.095  21.859  1.00  0.00    +0.078 A 
ATOM      7  C   UNL     1      51.499  55.090  20.955  1.00  0.00    +0.033 A 
BRANCH   3   8
ATOM      8  O   UNL     1      48.042  57.366  20.409  1.00  0.00    -0.490 OA
BRANCH   8   9
ATOM      9  C   UNL     1      47.878  58.076  19.186  1.00  0.00    +0.226 C 
ATOM     10  C   UNL     1      47.269  59.429  19.507  1.00  0.00    +0.049 C 
ENDBRANCH   8   9
ENDBRANCH   3   8
BRANCH   5  11
ATOM     11  O   UNL     1      49.734  57.948  22.398  1.00  0.00    -0.503 OA
ATOM     12  H   UNL     1      48.835  58.226  22.171  1.00  0.00    +0.293 HD
ENDBRANCH   5  11
BRANCH   6  13
ATOM     13  N   UNL     1      52.062  56.428  22.883  1.00  0.00    -0.396 N 
ATOM     14  H   UNL     1      52.955  56.764  22.533  1.00  0.00    +0.156 HD
ATOM     15  H   UNL     1      52.169  55.672  23.555  1.00  0.00    +0.156 HD
ENDBRANCH   6  13
ENDBRANCH   1   2
BRANCH   1  16
ATOM     16  C   UNL     1      50.198  52.386  19.270  1.00  0.00    +0.105 C 
BRANCH  16  17
ATOM     17  C   UNL     1      50.591  51.216  18.385  1.00  0.00    +0.223 C 
ATOM     18  O   UNL     1      51.764  51.028  18.061  1.00  0.00    -0.275 OA
BRANCH  17  19
ATOM     19  N   UNL     1      49.561  50.378  17.956  1.00  0.00    -0.340 N 
ATOM     20  C   UNL     1      49.010  49.282  18.761  1.00  0.00    +0.120 C 
ATOM     21  C   UNL     1      49.122  50.483  16.553  1.00  0.00    +0.082 C 
ATOM     22  C   UNL     1      47.573  48.949  18.382  1.00  0.00    +0.022 C 
ATOM     23  C   UNL     1      48.557  49.153  16.041  1.00  0.00    +0.025 C 
ATOM     24  C   UNL     1      47.415  48.614  16.901  1.00  0.00    +0.004 C 
ATOM     25  C   UNL     1      48.127  51.634  16.372  1.00  0.00    +0.031 C 
ENDBRANCH  17  19
ENDBRANCH  16  17
ENDBRANCH   1  16
TORSDOF 8
ENDMDL
