MODEL 1
REMARK VINA RESULT:    -7.424      0.000      0.000
REMARK INTER + INTRA:         -11.592
REMARK INTER:                 -10.680
REMARK INTRA:                  -0.913
REMARK UNBOUND:                -0.913
REMARK SMILES [NH3+]CCCNC(=O)c1ccc(CNC(=O)c2cccs2)cc1
REMARK SMILES IDX 6 1 7 2 5 3 8 5 11 6 10 7 21 8 9 9 22 10 12 11 13 12 14 13
REMARK SMILES IDX 15 14 16 16 18 17 17 18 19 19 20 20 4 21 3 22 2 23 1 24
REMARK H PARENT 5 4 13 15 1 25 1 26 1 27
ROOT
ATOM      1  C   UNL     1      47.803  48.563  18.184  1.00  0.00    +0.251 C 
ATOM      2  O   UNL     1      46.770  48.553  18.845  1.00  0.00    -0.269 OA
ATOM      3  N   UNL     1      47.948  47.803  17.037  1.00  0.00    -0.352 N 
ATOM      4  H   UNL     1      48.896  47.667  16.700  1.00  0.00    +0.163 HD
ENDROOT
BRANCH   1   5
ATOM      5  C   UNL     1      48.966  49.397  18.594  1.00  0.00    +0.039 A 
ATOM      6  C   UNL     1      51.129  51.043  19.313  1.00  0.00    -0.029 A 
ATOM      7  C   UNL     1      50.170  51.492  18.394  1.00  0.00    +0.006 A 
ATOM      8  C   UNL     1      51.009  49.752  19.846  1.00  0.00    +0.006 A 
ATOM      9  C   UNL     1      49.096  50.673  18.036  1.00  0.00    +0.014 A 
ATOM     10  C   UNL     1      49.934  48.930  19.491  1.00  0.00    +0.014 A 
BRANCH   6  11
ATOM     11  C   UNL     1      52.301  51.911  19.687  1.00  0.00    +0.152 C 
BRANCH  11  12
ATOM     12  N   UNL     1      51.872  53.264  19.936  1.00  0.00    -0.347 N 
ATOM     13  C   UNL     1      51.531  53.680  21.205  1.00  0.00    +0.261 C 
ATOM     14  O   UNL     1      51.711  52.956  22.182  1.00  0.00    -0.268 OA
ATOM     15  H   UNL     1      51.562  53.834  19.160  1.00  0.00    +0.164 HD
BRANCH  13  16
ATOM     16  C   UNL     1      50.947  55.012  21.305  1.00  0.00    +0.092 A 
ATOM     17  C   UNL     1      49.519  56.829  20.949  1.00  0.00    +0.012 A 
ATOM     18  C   UNL     1      49.830  55.475  20.634  1.00  0.00    +0.025 A 
ATOM     19  C   UNL     1      50.409  57.363  21.853  1.00  0.00    +0.065 A 
ATOM     20  S   UNL     1      51.607  56.233  22.315  1.00  0.00    -0.139 S 
ENDBRANCH  13  16
ENDBRANCH  11  12
ENDBRANCH   6  11
ENDBRANCH   1   5
BRANCH   3  21
ATOM     21  C   UNL     1      46.990  46.769  16.702  1.00  0.00    +0.122 C 
BRANCH  21  22
ATOM     22  C   UNL     1      45.896  47.230  15.735  1.00  0.00    +0.082 C 
BRANCH  22  23
ATOM     23  C   UNL     1      44.525  47.334  16.387  1.00  0.00    +0.260 C 
BRANCH  23  24
ATOM     24  N   UNL     1      44.578  46.740  17.750  1.00  0.00    -0.358 N 
ATOM     25  H   UNL     1      43.696  46.273  17.995  1.00  0.00    +0.344 HD
ATOM     26  H   UNL     1      44.740  47.479  18.447  1.00  0.00    +0.344 HD
ATOM     27  H   UNL     1      45.343  46.060  17.841  1.00  0.00    +0.344 HD
ENDBRANCH  23  24
ENDBRANCH  22  23
ENDBRANCH  21  22
ENDBRANCH   3  21
TORSDOF 8
ENDMDL
MODEL 2
REMARK VINA RESULT:    -7.381      3.164      8.650
REMARK INTER + INTRA:         -11.530
REMARK INTER:                 -10.779
REMARK INTRA:                  -0.752
REMARK UNBOUND:                -0.913
REMARK SMILES [NH3+]CCCNC(=O)c1ccc(CNC(=O)c2cccs2)cc1
REMARK SMILES IDX 6 1 7 2 5 3 8 5 11 6 10 7 21 8 9 9 22 10 12 11 13 12 14 13
REMARK SMILES IDX 15 14 16 16 18 17 17 18 19 19 20 20 4 21 3 22 2 23 1 24
REMARK H PARENT 5 4 13 15 1 25 1 26 1 27
ROOT
ATOM      1  C   UNL     1      51.837  55.242  21.758  1.00  0.00    +0.251 C 
ATOM      2  O   UNL     1      51.939  55.430  22.966  1.00  0.00    -0.269 OA
ATOM      3  N   UNL     1      51.747  56.288  20.857  1.00  0.00    -0.352 N 
ATOM      4  H   UNL     1      51.411  56.057  19.927  1.00  0.00    +0.163 HD
ENDROOT
BRANCH   1   5
ATOM      5  C   UNL     1      51.795  53.863  21.199  1.00  0.00    +0.039 A 
ATOM      6  C   UNL     1      51.761  51.291  20.064  1.00  0.00    -0.029 A 
ATOM      7  C   UNL     1      52.283  52.376  19.347  1.00  0.00    +0.006 A 
ATOM      8  C   UNL     1      51.232  51.512  21.344  1.00  0.00    +0.006 A 
ATOM      9  C   UNL     1      52.299  53.655  19.910  1.00  0.00    +0.014 A 
ATOM     10  C   UNL     1      51.247  52.789  21.911  1.00  0.00    +0.014 A 
BRANCH   6  11
ATOM     11  C   UNL     1      51.721  49.914  19.455  1.00  0.00    +0.152 C 
BRANCH  11  12
ATOM     12  N   UNL     1      50.363  49.514  19.193  1.00  0.00    -0.347 N 
ATOM     13  C   UNL     1      49.719  49.896  18.035  1.00  0.00    +0.261 C 
ATOM     14  O   UNL     1      50.323  50.473  17.133  1.00  0.00    -0.268 OA
ATOM     15  H   UNL     1      49.789  49.185  19.958  1.00  0.00    +0.164 HD
BRANCH  13  16
ATOM     16  C   UNL     1      48.298  49.582  17.960  1.00  0.00    +0.092 A 
ATOM     17  C   UNL     1      46.238  48.559  18.383  1.00  0.00    +0.012 A 
ATOM     18  C   UNL     1      47.627  48.620  18.694  1.00  0.00    +0.025 A 
ATOM     19  C   UNL     1      45.887  49.476  17.419  1.00  0.00    +0.065 A 
ATOM     20  S   UNL     1      47.228  50.402  16.899  1.00  0.00    -0.139 S 
ENDBRANCH  13  16
ENDBRANCH  11  12
ENDBRANCH   6  11
ENDBRANCH   1   5
BRANCH   3  21
ATOM     21  C   UNL     1      51.513  57.645  21.310  1.00  0.00    +0.122 C 
BRANCH  21  22
ATOM     22  C   UNL     1      52.704  58.582  21.096  1.00  0.00    +0.082 C 
BRANCH  22  23
ATOM     23  C   UNL     1      54.046  57.919  21.375  1.00  0.00    +0.260 C 
BRANCH  23  24
ATOM     24  N   UNL     1      54.220  57.754  22.844  1.00  0.00    -0.358 N 
ATOM     25  H   UNL     1      54.481  58.639  23.296  1.00  0.00    +0.344 HD
ATOM     26  H   UNL     1      54.972  57.078  23.032  1.00  0.00    +0.344 HD
ATOM     27  H   UNL     1      53.367  57.398  23.293  1.00  0.00    +0.344 HD
ENDBRANCH  23  24
ENDBRANCH  22  23
ENDBRANCH  21  22
ENDBRANCH   3  21
TORSDOF 8
ENDMDL
MODEL 3
REMARK VINA RESULT:    -7.250      3.128      8.025
REMARK INTER + INTRA:         -11.342
REMARK INTER:                 -10.736
REMARK INTRA:                  -0.605
REMARK UNBOUND:                -0.913
REMARK SMILES [NH3+]CCCNC(=O)c1ccc(CNC(=O)c2cccs2)cc1
REMARK SMILES IDX 6 1 7 2 5 3 8 5 11 6 10 7 21 8 9 9 22 10 12 11 13 12 14 13
REMARK SMILES IDX 15 14 16 16 18 17 17 18 19 19 20 20 4 21 3 22 2 23 1 24
REMARK H PARENT 5 4 13 15 1 25 1 26 1 27
ROOT
ATOM      1  C   UNL     1      51.655  55.320  21.798  1.00  0.00    +0.251 C 
ATOM      2  O   UNL     1      52.043  55.540  22.940  1.00  0.00    -0.269 OA
ATOM      3  N   UNL     1      51.201  56.330  20.968  1.00  0.00    -0.352 N 
ATOM      4  H   UNL     1      50.668  56.041  20.154  1.00  0.00    +0.163 HD
ENDROOT
BRANCH   1   5
ATOM      5  C   UNL     1      51.647  53.937  21.246  1.00  0.00    +0.039 A 
ATOM      6  C   UNL     1      51.680  51.358  20.127  1.00  0.00    -0.029 A 
ATOM      7  C   UNL     1      52.225  52.442  19.426  1.00  0.00    +0.006 A 
ATOM      8  C   UNL     1      51.093  51.583  21.381  1.00  0.00    +0.006 A 
ATOM      9  C   UNL     1      52.208  53.724  19.982  1.00  0.00    +0.014 A 
ATOM     10  C   UNL     1      51.075  52.864  21.940  1.00  0.00    +0.014 A 
BRANCH   6  11
ATOM     11  C   UNL     1      51.676  49.977  19.526  1.00  0.00    +0.152 C 
BRANCH  11  12
ATOM     12  N   UNL     1      50.329  49.547  19.250  1.00  0.00    -0.347 N 
ATOM     13  C   UNL     1      49.692  49.908  18.080  1.00  0.00    +0.261 C 
ATOM     14  O   UNL     1      50.296  50.489  17.181  1.00  0.00    -0.268 OA
ATOM     15  H   UNL     1      49.752  49.213  20.010  1.00  0.00    +0.164 HD
BRANCH  13  16
ATOM     16  C   UNL     1      48.279  49.564  17.990  1.00  0.00    +0.092 A 
ATOM     17  C   UNL     1      46.238  48.491  18.382  1.00  0.00    +0.012 A 
ATOM     18  C   UNL     1      47.623  48.577  18.705  1.00  0.00    +0.025 A 
ATOM     19  C   UNL     1      45.875  49.416  17.429  1.00  0.00    +0.065 A 
ATOM     20  S   UNL     1      47.199  50.378  16.933  1.00  0.00    -0.139 S 
ENDBRANCH  13  16
ENDBRANCH  11  12
ENDBRANCH   6  11
ENDBRANCH   1   5
BRANCH   3  21
ATOM     21  C   UNL     1      50.921  57.653  21.488  1.00  0.00    +0.122 C 
BRANCH  21  22
ATOM     22  C   UNL     1      49.441  57.894  21.796  1.00  0.00    +0.082 C 
BRANCH  22  23
ATOM     23  C   UNL     1      48.504  57.213  20.808  1.00  0.00    +0.260 C 
BRANCH  23  24
ATOM     24  N   UNL     1      47.542  58.212  20.269  1.00  0.00    -0.358 N 
ATOM     25  H   UNL     1      46.884  57.785  19.606  1.00  0.00    +0.344 HD
ATOM     26  H   UNL     1      48.052  58.951  19.766  1.00  0.00    +0.344 HD
ATOM     27  H   UNL     1      47.003  58.666  21.016  1.00  0.00    +0.344 HD
ENDBRANCH  23  24
ENDBRANCH  22  23
ENDBRANCH  21  22
ENDBRANCH   3  21
TORSDOF 8
ENDMDL
MODEL 4
REMARK VINA RESULT:    -6.822      3.245      8.458
REMARK INTER + INTRA:         -10.726
REMARK INTER:                 -10.163
REMARK INTRA:                  -0.562
REMARK UNBOUND:                -0.913
REMARK SMILES [NH3+]CCCNC(=O)c1ccc(CNC(=O)c2cccs2)cc1
REMARK SMILES IDX 6 1 7 2 5 3 8 5 11 6 10 7 21 8 9 9 22 10 12 11 13 12 14 13
REMARK SMILES IDX 15 14 16 16 18 17 17 18 19 19 20 20 4 21 3 22 2 23 1 24
REMARK H PARENT 5 4 13 15 1 25 1 26 1 27
ROOT
ATOM      1  C   UNL     1      50.244  55.205  19.347  1.00  0.00    +0.251 C 
ATOM      2  O   UNL     1      51.174  55.839  18.861  1.00  0.00    -0.269 OA
ATOM      3  N   UNL     1      49.164  55.827  19.949  1.00  0.00    -0.352 N 
ATOM      4  H   UNL     1      48.580  55.247  20.542  1.00  0.00    +0.163 HD
ENDROOT
BRANCH   1   5
ATOM      5  C   UNL     1      50.237  53.716  19.322  1.00  0.00    +0.039 A 
ATOM      6  C   UNL     1      50.178  50.909  19.188  1.00  0.00    -0.029 A 
ATOM      7  C   UNL     1      49.566  51.679  18.190  1.00  0.00    +0.006 A 
ATOM      8  C   UNL     1      50.795  51.557  20.267  1.00  0.00    +0.006 A 
ATOM      9  C   UNL     1      49.594  53.075  18.257  1.00  0.00    +0.014 A 
ATOM     10  C   UNL     1      50.827  52.953  20.337  1.00  0.00    +0.014 A 
BRANCH   6  11
ATOM     11  C   UNL     1      50.133  49.404  19.134  1.00  0.00    +0.152 C 
BRANCH  11  12
ATOM     12  N   UNL     1      48.777  48.941  18.984  1.00  0.00    -0.347 N 
ATOM     13  C   UNL     1      48.321  48.453  17.778  1.00  0.00    +0.261 C 
ATOM     14  O   UNL     1      49.089  48.270  16.835  1.00  0.00    -0.268 OA
ATOM     15  H   UNL     1      48.084  49.215  19.668  1.00  0.00    +0.164 HD
BRANCH  13  16
ATOM     16  C   UNL     1      46.892  48.180  17.699  1.00  0.00    +0.092 A 
ATOM     17  C   UNL     1      44.704  47.663  18.342  1.00  0.00    +0.012 A 
ATOM     18  C   UNL     1      46.049  47.881  18.755  1.00  0.00    +0.025 A 
ATOM     19  C   UNL     1      44.556  47.801  16.980  1.00  0.00    +0.065 A 
ATOM     20  S   UNL     1      46.033  48.193  16.213  1.00  0.00    -0.139 S 
ENDBRANCH  13  16
ENDBRANCH  11  12
ENDBRANCH   6  11
ENDBRANCH   1   5
BRANCH   3  21
ATOM     21  C   UNL     1      49.199  57.242  20.260  1.00  0.00    +0.122 C 
BRANCH  21  22
ATOM     22  C   UNL     1      49.603  57.547  21.705  1.00  0.00    +0.082 C 
BRANCH  22  23
ATOM     23  C   UNL     1      51.112  57.577  21.911  1.00  0.00    +0.260 C 
BRANCH  23  24
ATOM     24  N   UNL     1      51.505  56.484  22.840  1.00  0.00    -0.358 N 
ATOM     25  H   UNL     1      52.296  56.759  23.436  1.00  0.00    +0.344 HD
ATOM     26  H   UNL     1      51.798  55.657  22.303  1.00  0.00    +0.344 HD
ATOM     27  H   UNL     1      50.726  56.197  23.446  1.00  0.00    +0.344 HD
ENDBRANCH  23  24
ENDBRANCH  22  23
ENDBRANCH  21  22
ENDBRANCH   3  21
TORSDOF 8
ENDMDL
MODEL 5
REMARK VINA RESULT:    -6.533      4.624      8.907
REMARK INTER + INTRA:         -10.311
REMARK INTER:                  -9.545
REMARK INTRA:                  -0.766
REMARK UNBOUND:                -0.913
REMARK SMILES [NH3+]CCCNC(=O)c1ccc(CNC(=O)c2cccs2)cc1
REMARK SMILES IDX 6 1 7 2 5 3 8 5 11 6 10 7 21 8 9 9 22 10 12 11 13 12 14 13
REMARK SMILES IDX 15 14 16 16 18 17 17 18 19 19 20 20 4 21 3 22 2 23 1 24
REMARK H PARENT 5 4 13 15 1 25 1 26 1 27
ROOT
ATOM      1  C   UNL     1      47.481  58.967  18.808  1.00  0.00    +0.251 C 
ATOM      2  O   UNL     1      47.141  58.829  17.638  1.00  0.00    -0.269 OA
ATOM      3  N   UNL     1      47.125  60.078  19.552  1.00  0.00    -0.352 N 
ATOM      4  H   UNL     1      47.649  60.238  20.406  1.00  0.00    +0.163 HD
ENDROOT
BRANCH   1   5
ATOM      5  C   UNL     1      48.310  57.935  19.490  1.00  0.00    +0.039 A 
ATOM      6  C   UNL     1      49.876  55.935  20.694  1.00  0.00    -0.029 A 
ATOM      7  C   UNL     1      49.436  55.790  19.372  1.00  0.00    +0.006 A 
ATOM      8  C   UNL     1      49.502  57.078  21.416  1.00  0.00    +0.006 A 
ATOM      9  C   UNL     1      48.656  56.784  18.773  1.00  0.00    +0.014 A 
ATOM     10  C   UNL     1      48.723  58.074  20.820  1.00  0.00    +0.014 A 
BRANCH   6  11
ATOM     11  C   UNL     1      50.699  54.859  21.353  1.00  0.00    +0.152 C 
BRANCH  11  12
ATOM     12  N   UNL     1      50.364  53.565  20.818  1.00  0.00    -0.347 N 
ATOM     13  C   UNL     1      51.083  52.441  21.171  1.00  0.00    +0.261 C 
ATOM     14  O   UNL     1      51.940  52.486  22.051  1.00  0.00    -0.268 OA
ATOM     15  H   UNL     1      49.787  53.507  19.990  1.00  0.00    +0.164 HD
BRANCH  13  16
ATOM     16  C   UNL     1      50.766  51.224  20.436  1.00  0.00    +0.092 A 
ATOM     17  C   UNL     1      50.499  48.956  19.930  1.00  0.00    +0.012 A 
ATOM     18  C   UNL     1      50.890  49.925  20.898  1.00  0.00    +0.025 A 
ATOM     19  C   UNL     1      50.088  49.542  18.755  1.00  0.00    +0.065 A 
ATOM     20  S   UNL     1      50.173  51.248  18.825  1.00  0.00    -0.139 S 
ENDBRANCH  13  16
ENDBRANCH  11  12
ENDBRANCH   6  11
ENDBRANCH   1   5
BRANCH   3  21
ATOM     21  C   UNL     1      46.554  61.248  18.916  1.00  0.00    +0.122 C 
BRANCH  21  22
ATOM     22  C   UNL     1      45.023  61.251  18.889  1.00  0.00    +0.082 C 
BRANCH  22  23
ATOM     23  C   UNL     1      44.448  61.094  17.488  1.00  0.00    +0.260 C 
BRANCH  23  24
ATOM     24  N   UNL     1      45.531  61.278  16.485  1.00  0.00    -0.358 N 
ATOM     25  H   UNL     1      45.358  62.094  15.885  1.00  0.00    +0.344 HD
ATOM     26  H   UNL     1      45.585  60.452  15.874  1.00  0.00    +0.344 HD
ATOM     27  H   UNL     1      46.451  61.391  16.930  1.00  0.00    +0.344 HD
ENDBRANCH  23  24
ENDBRANCH  22  23
ENDBRANCH  21  22
ENDBRANCH   3  21
TORSDOF 8
ENDMDL
