MODEL 1
REMARK VINA RESULT:    -9.052      0.000      0.000
REMARK INTER + INTRA:         -11.428
REMARK INTER:                 -11.168
REMARK INTRA:                  -0.260
REMARK UNBOUND:                -0.260
REMARK SMILES CCc1cc(=O)[nH]c(NCCc2c[nH]c3ccccc23)n1
REMARK SMILES IDX 10 1 9 2 3 3 4 4 21 5 5 6 8 7 6 8 7 9 2 12 1 13 11 14 12 15
REMARK SMILES IDX 13 16 20 17 14 18 15 19 19 20 16 21 18 22 17 23
REMARK H PARENT 7 10 9 11 14 24
ROOT
ATOM      1  C   UNL     1      52.031  53.772  19.598  1.00  0.00    +0.121 C 
ENDROOT
BRANCH   1   2
ATOM      2  N   UNL     1      51.362  53.256  18.411  1.00  0.00    -0.355 N 
ATOM      3  C   UNL     1      48.803  50.919  17.667  1.00  0.00    +0.050 C 
ATOM      4  C   UNL     1      49.135  49.822  18.360  1.00  0.00    +0.095 C 
ATOM      5  N   UNL     1      49.543  52.078  17.676  1.00  0.00    -0.220 NA
ATOM      6  C   UNL     1      50.368  49.856  19.155  1.00  0.00    +0.252 C 
ATOM      7  C   UNL     1      50.622  52.111  18.398  1.00  0.00    +0.203 C 
ATOM      8  O   UNL     1      50.753  48.878  19.782  1.00  0.00    -0.269 OA
ATOM      9  N   UNL     1      51.036  51.042  19.134  1.00  0.00    -0.293 N 
ATOM     10  H   UNL     1      51.905  51.074  19.639  1.00  0.00    +0.173 HD
ATOM     11  H   UNL     1      50.867  53.973  17.886  1.00  0.00    +0.163 HD
BRANCH   3  12
ATOM     12  C   UNL     1      47.546  50.956  16.830  1.00  0.00    +0.053 C 
ATOM     13  C   UNL     1      46.510  49.945  17.303  1.00  0.00    +0.011 C 
ENDBRANCH   3  12
ENDBRANCH   1   2
BRANCH   1  14
ATOM     14  C   UNL     1      51.080  53.751  20.798  1.00  0.00    +0.059 C 
BRANCH  14  15
ATOM     15  C   UNL     1      50.861  55.117  21.369  1.00  0.00    -0.021 A 
ATOM     16  C   UNL     1      51.672  55.762  22.282  1.00  0.00    +0.087 A 
ATOM     17  C   UNL     1      49.774  56.002  21.079  1.00  0.00    +0.003 A 
ATOM     18  N   UNL     1      51.125  56.987  22.553  1.00  0.00    -0.361 N 
ATOM     19  C   UNL     1      49.965  57.158  21.836  1.00  0.00    +0.046 A 
ATOM     20  C   UNL     1      48.641  55.927  20.243  1.00  0.00    +0.010 A 
ATOM     21  C   UNL     1      49.079  58.243  21.802  1.00  0.00    +0.026 A 
ATOM     22  C   UNL     1      47.745  57.001  20.196  1.00  0.00    +0.001 A 
ATOM     23  C   UNL     1      47.963  58.140  20.966  1.00  0.00    +0.002 A 
ATOM     24  H   UNL     1      51.513  57.673  23.187  1.00  0.00    +0.166 HD
ENDBRANCH  14  15
ENDBRANCH   1  14
TORSDOF 4
ENDMDL
MODEL 2
REMARK VINA RESULT:    -8.834      2.294      7.061
REMARK INTER + INTRA:         -11.159
REMARK INTER:                 -10.810
REMARK INTRA:                  -0.349
REMARK UNBOUND:                -0.260
REMARK SMILES CCc1cc(=O)[nH]c(NCCc2c[nH]c3ccccc23)n1
REMARK SMILES IDX 10 1 9 2 3 3 4 4 21 5 5 6 8 7 6 8 7 9 2 12 1 13 11 14 12 15
REMARK SMILES IDX 13 16 20 17 14 18 15 19 19 20 16 21 18 22 17 23
REMARK H PARENT 7 10 9 11 14 24
ROOT
ATOM      1  C   UNL     1      50.358  53.062  18.490  1.00  0.00    +0.121 C 
ENDROOT
BRANCH   1   2
ATOM      2  N   UNL     1      49.394  53.763  19.329  1.00  0.00    -0.355 N 
ATOM      3  C   UNL     1      49.214  56.838  21.083  1.00  0.00    +0.050 C 
ATOM      4  C   UNL     1      50.359  56.900  21.776  1.00  0.00    +0.095 C 
ATOM      5  N   UNL     1      48.879  55.790  20.258  1.00  0.00    -0.220 NA
ATOM      6  C   UNL     1      51.295  55.776  21.661  1.00  0.00    +0.252 C 
ATOM      7  C   UNL     1      49.720  54.808  20.143  1.00  0.00    +0.203 C 
ATOM      8  O   UNL     1      52.342  55.746  22.295  1.00  0.00    -0.269 OA
ATOM      9  N   UNL     1      50.908  54.785  20.811  1.00  0.00    -0.293 N 
ATOM     10  H   UNL     1      51.515  53.987  20.749  1.00  0.00    +0.173 HD
ATOM     11  H   UNL     1      48.527  53.982  18.846  1.00  0.00    +0.163 HD
BRANCH   3  12
ATOM     12  C   UNL     1      48.206  57.961  21.151  1.00  0.00    +0.053 C 
ATOM     13  C   UNL     1      47.732  58.392  19.770  1.00  0.00    +0.011 C 
ENDBRANCH   3  12
ENDBRANCH   1   2
BRANCH   1  14
ATOM     14  C   UNL     1      49.634  52.175  17.473  1.00  0.00    +0.059 C 
BRANCH  14  15
ATOM     15  C   UNL     1      49.215  50.865  18.063  1.00  0.00    -0.021 A 
ATOM     16  C   UNL     1      49.986  50.042  18.860  1.00  0.00    +0.087 A 
ATOM     17  C   UNL     1      47.945  50.223  17.908  1.00  0.00    +0.003 A 
ATOM     18  N   UNL     1      49.243  48.942  19.190  1.00  0.00    -0.361 N 
ATOM     19  C   UNL     1      47.995  49.024  18.619  1.00  0.00    +0.046 A 
ATOM     20  C   UNL     1      46.755  50.550  17.226  1.00  0.00    +0.010 A 
ATOM     21  C   UNL     1      46.916  48.133  18.681  1.00  0.00    +0.026 A 
ATOM     22  C   UNL     1      45.666  49.672  17.277  1.00  0.00    +0.001 A 
ATOM     23  C   UNL     1      45.749  48.481  17.994  1.00  0.00    +0.002 A 
ATOM     24  H   UNL     1      49.558  48.176  19.769  1.00  0.00    +0.166 HD
ENDBRANCH  14  15
ENDBRANCH   1  14
TORSDOF 4
ENDMDL
MODEL 3
REMARK VINA RESULT:    -8.807      1.600      2.408
REMARK INTER + INTRA:         -11.127
REMARK INTER:                 -10.782
REMARK INTRA:                  -0.345
REMARK UNBOUND:                -0.260
REMARK SMILES CCc1cc(=O)[nH]c(NCCc2c[nH]c3ccccc23)n1
REMARK SMILES IDX 10 1 9 2 3 3 4 4 21 5 5 6 8 7 6 8 7 9 2 12 1 13 11 14 12 15
REMARK SMILES IDX 13 16 20 17 14 18 15 19 19 20 16 21 18 22 17 23
REMARK H PARENT 7 10 9 11 14 24
ROOT
ATOM      1  C   UNL     1      49.347  53.156  17.622  1.00  0.00    +0.121 C 
ENDROOT
BRANCH   1   2
ATOM      2  N   UNL     1      48.517  52.160  16.959  1.00  0.00    -0.355 N 
ATOM      3  C   UNL     1      46.685  49.266  17.873  1.00  0.00    +0.050 C 
ATOM      4  C   UNL     1      47.539  48.543  18.610  1.00  0.00    +0.095 C 
ATOM      5  N   UNL     1      47.002  50.482  17.313  1.00  0.00    -0.220 NA
ATOM      6  C   UNL     1      48.892  49.073  18.812  1.00  0.00    +0.252 C 
ATOM      7  C   UNL     1      48.194  50.956  17.513  1.00  0.00    +0.203 C 
ATOM      8  O   UNL     1      49.737  48.450  19.442  1.00  0.00    -0.269 OA
ATOM      9  N   UNL     1      49.127  50.290  18.248  1.00  0.00    -0.293 N 
ATOM     10  H   UNL     1      50.061  50.651  18.340  1.00  0.00    +0.173 HD
ATOM     11  H   UNL     1      47.686  52.555  16.525  1.00  0.00    +0.163 HD
BRANCH   3  12
ATOM     12  C   UNL     1      45.274  48.784  17.626  1.00  0.00    +0.053 C 
ATOM     13  C   UNL     1      44.969  47.494  18.374  1.00  0.00    +0.011 C 
ENDBRANCH   3  12
ENDBRANCH   1   2
BRANCH   1  14
ATOM     14  C   UNL     1      48.482  54.099  18.464  1.00  0.00    +0.059 C 
BRANCH  14  15
ATOM     15  C   UNL     1      49.277  54.806  19.515  1.00  0.00    -0.021 A 
ATOM     16  C   UNL     1      50.493  54.404  20.032  1.00  0.00    +0.087 A 
ATOM     17  C   UNL     1      48.923  56.023  20.183  1.00  0.00    +0.003 A 
ATOM     18  N   UNL     1      50.885  55.318  20.972  1.00  0.00    -0.361 N 
ATOM     19  C   UNL     1      49.944  56.313  21.088  1.00  0.00    +0.046 A 
ATOM     20  C   UNL     1      47.826  56.906  20.103  1.00  0.00    +0.010 A 
ATOM     21  C   UNL     1      49.923  57.440  21.919  1.00  0.00    +0.026 A 
ATOM     22  C   UNL     1      47.789  58.037  20.926  1.00  0.00    +0.001 A 
ATOM     23  C   UNL     1      48.824  58.297  21.820  1.00  0.00    +0.002 A 
ATOM     24  H   UNL     1      51.741  55.274  21.508  1.00  0.00    +0.166 HD
ENDBRANCH  14  15
ENDBRANCH   1  14
TORSDOF 4
ENDMDL
MODEL 4
REMARK VINA RESULT:    -8.709      1.909      2.419
REMARK INTER + INTRA:         -11.006
REMARK INTER:                 -10.638
REMARK INTRA:                  -0.368
REMARK UNBOUND:                -0.260
REMARK SMILES CCc1cc(=O)[nH]c(NCCc2c[nH]c3ccccc23)n1
REMARK SMILES IDX 10 1 9 2 3 3 4 4 21 5 5 6 8 7 6 8 7 9 2 12 1 13 11 14 12 15
REMARK SMILES IDX 13 16 20 17 14 18 15 19 19 20 16 21 18 22 17 23
REMARK H PARENT 7 10 9 11 14 24
ROOT
ATOM      1  C   UNL     1      50.606  52.461  18.542  1.00  0.00    +0.121 C 
ENDROOT
BRANCH   1   2
ATOM      2  N   UNL     1      49.316  52.156  17.937  1.00  0.00    -0.355 N 
ATOM      3  C   UNL     1      47.849  49.481  16.132  1.00  0.00    +0.050 C 
ATOM      4  C   UNL     1      48.737  49.193  15.172  1.00  0.00    +0.095 C 
ATOM      5  N   UNL     1      48.033  50.474  17.067  1.00  0.00    -0.220 NA
ATOM      6  C   UNL     1      49.963  49.998  15.104  1.00  0.00    +0.252 C 
ATOM      7  C   UNL     1      49.128  51.168  17.016  1.00  0.00    +0.203 C 
ATOM      8  O   UNL     1      50.801  49.817  14.230  1.00  0.00    -0.269 OA
ATOM      9  N   UNL     1      50.087  50.946  16.074  1.00  0.00    -0.293 N 
ATOM     10  H   UNL     1      50.899  51.535  16.020  1.00  0.00    +0.173 HD
ATOM     11  H   UNL     1      48.555  52.125  18.611  1.00  0.00    +0.163 HD
BRANCH   3  12
ATOM     12  C   UNL     1      46.568  48.692  16.264  1.00  0.00    +0.053 C 
ATOM     13  C   UNL     1      45.623  49.298  17.292  1.00  0.00    +0.011 C 
ENDBRANCH   3  12
ENDBRANCH   1   2
BRANCH   1  14
ATOM     14  C   UNL     1      50.517  52.370  20.068  1.00  0.00    +0.059 C 
BRANCH  14  15
ATOM     15  C   UNL     1      50.721  53.698  20.726  1.00  0.00    -0.021 A 
ATOM     16  C   UNL     1      51.764  54.046  21.561  1.00  0.00    +0.087 A 
ATOM     17  C   UNL     1      49.875  54.847  20.617  1.00  0.00    +0.003 A 
ATOM     18  N   UNL     1      51.586  55.344  21.956  1.00  0.00    -0.361 N 
ATOM     19  C   UNL     1      50.438  55.856  21.398  1.00  0.00    +0.046 A 
ATOM     20  C   UNL     1      48.677  55.124  19.925  1.00  0.00    +0.010 A 
ATOM     21  C   UNL     1      49.864  57.127  21.526  1.00  0.00    +0.026 A 
ATOM     22  C   UNL     1      48.089  56.389  20.042  1.00  0.00    +0.001 A 
ATOM     23  C   UNL     1      48.677  57.374  20.832  1.00  0.00    +0.002 A 
ATOM     24  H   UNL     1      52.203  55.858  22.569  1.00  0.00    +0.166 HD
ENDBRANCH  14  15
ENDBRANCH   1  14
TORSDOF 4
ENDMDL
MODEL 5
REMARK VINA RESULT:    -7.639      1.440      2.088
REMARK INTER + INTRA:          -9.686
REMARK INTER:                  -9.528
REMARK INTRA:                  -0.157
REMARK UNBOUND:                -0.260
REMARK SMILES CCc1cc(=O)[nH]c(NCCc2c[nH]c3ccccc23)n1
REMARK SMILES IDX 10 1 9 2 3 3 4 4 21 5 5 6 8 7 6 8 7 9 2 12 1 13 11 14 12 15
REMARK SMILES IDX 13 16 20 17 14 18 15 19 19 20 16 21 18 22 17 23
REMARK H PARENT 7 10 9 11 14 24
ROOT
ATOM      1  C   UNL     1      52.279  52.998  19.423  1.00  0.00    +0.121 C 
ENDROOT
BRANCH   1   2
ATOM      2  N   UNL     1      51.547  52.254  18.406  1.00  0.00    -0.355 N 
ATOM      3  C   UNL     1      48.903  49.895  18.297  1.00  0.00    +0.050 C 
ATOM      4  C   UNL     1      49.239  48.968  19.204  1.00  0.00    +0.095 C 
ATOM      5  N   UNL     1      49.670  51.003  18.021  1.00  0.00    -0.220 NA
ATOM      6  C   UNL     1      50.506  49.138  19.925  1.00  0.00    +0.252 C 
ATOM      7  C   UNL     1      50.780  51.160  18.676  1.00  0.00    +0.203 C 
ATOM      8  O   UNL     1      50.896  48.311  20.740  1.00  0.00    -0.269 OA
ATOM      9  N   UNL     1      51.201  50.267  19.616  1.00  0.00    -0.293 N 
ATOM     10  H   UNL     1      52.091  50.381  20.068  1.00  0.00    +0.173 HD
ATOM     11  H   UNL     1      51.046  52.853  17.754  1.00  0.00    +0.163 HD
BRANCH   3  12
ATOM     12  C   UNL     1      47.612  49.787  17.520  1.00  0.00    +0.053 C 
ATOM     13  C   UNL     1      47.272  51.078  16.788  1.00  0.00    +0.011 C 
ENDBRANCH   3  12
ENDBRANCH   1   2
BRANCH   1  14
ATOM     14  C   UNL     1      52.225  54.500  19.128  1.00  0.00    +0.059 C 
BRANCH  14  15
ATOM     15  C   UNL     1      50.849  55.061  19.300  1.00  0.00    -0.021 A 
ATOM     16  C   UNL     1      49.727  54.716  18.573  1.00  0.00    +0.087 A 
ATOM     17  C   UNL     1      50.442  56.058  20.245  1.00  0.00    +0.003 A 
ATOM     18  N   UNL     1      48.671  55.455  19.033  1.00  0.00    -0.361 N 
ATOM     19  C   UNL     1      49.080  56.285  20.050  1.00  0.00    +0.046 A 
ATOM     20  C   UNL     1      51.109  56.791  21.248  1.00  0.00    +0.010 A 
ATOM     21  C   UNL     1      48.350  57.210  20.806  1.00  0.00    +0.026 A 
ATOM     22  C   UNL     1      50.395  57.720  22.013  1.00  0.00    +0.001 A 
ATOM     23  C   UNL     1      49.035  57.925  21.793  1.00  0.00    +0.002 A 
ATOM     24  H   UNL     1      47.725  55.404  18.682  1.00  0.00    +0.166 HD
ENDBRANCH  14  15
ENDBRANCH   1  14
TORSDOF 4
ENDMDL
