MODEL 1
REMARK VINA RESULT:    -7.840      0.000      0.000
REMARK INTER + INTRA:         -10.698
REMARK INTER:                 -10.132
REMARK INTRA:                  -0.566
REMARK UNBOUND:                -0.566
REMARK SMILES CCNC(=O)C[NH2+][C@]1(C(=O)[O-])CCc2ccccc21
REMARK SMILES IDX 6 1 4 2 3 3 5 4 2 6 1 7 7 8 8 11 12 12 19 13 13 14 14 15
REMARK SMILES IDX 18 16 15 17 17 18 16 19 9 20 10 21 11 22
REMARK H PARENT 3 5 7 9 7 10
ROOT
ATOM      1  C   UNL     1      51.593  52.808  22.081  1.00  0.00    +0.362 C 
ENDROOT
BRANCH   1   2
ATOM      2  C   UNL     1      51.837  51.497  21.336  1.00  0.00    +0.275 C 
ATOM      3  N   UNL     1      50.902  50.521  21.609  1.00  0.00    -0.351 N 
ATOM      4  O   UNL     1      52.810  51.339  20.607  1.00  0.00    -0.269 OA
ATOM      5  H   UNL     1      50.120  50.721  22.259  1.00  0.00    +0.163 HD
BRANCH   3   6
ATOM      6  C   UNL     1      50.972  49.194  21.036  1.00  0.00    +0.112 C 
ATOM      7  C   UNL     1      50.196  49.117  19.735  1.00  0.00    +0.027 C 
ENDBRANCH   3   6
ENDBRANCH   1   2
BRANCH   1   8
ATOM      8  N   UNL     1      50.506  53.609  21.426  1.00  0.00    -0.325 N 
ATOM      9  H   UNL     1      50.167  52.992  20.664  1.00  0.00    +0.347 HD
ATOM     10  H   UNL     1      49.705  53.816  22.026  1.00  0.00    +0.347 HD
BRANCH   8  11
ATOM     11  C   UNL     1      50.977  54.802  20.589  1.00  0.00    +0.163 C 
ATOM     12  C   UNL     1      52.070  55.588  21.342  1.00  0.00    +0.085 C 
ATOM     13  C   UNL     1      49.859  55.826  20.583  1.00  0.00    +0.022 A 
ATOM     14  C   UNL     1      51.357  56.554  22.299  1.00  0.00    +0.043 C 
ATOM     15  C   UNL     1      50.076  56.802  21.567  1.00  0.00    -0.038 A 
ATOM     16  C   UNL     1      48.704  55.846  19.811  1.00  0.00    +0.011 A 
ATOM     17  C   UNL     1      49.155  57.810  21.794  1.00  0.00    +0.004 A 
ATOM     18  C   UNL     1      47.775  56.865  20.028  1.00  0.00    +0.001 A 
ATOM     19  C   UNL     1      47.999  57.839  21.012  1.00  0.00    +0.000 A 
BRANCH  11  20
ATOM     20  C   UNL     1      51.315  54.337  19.122  1.00  0.00    +0.108 C 
ATOM     21  O   UNL     1      50.639  53.417  18.614  1.00  0.00    -0.543 OA
ATOM     22  O   UNL     1      52.211  55.097  18.607  1.00  0.00    -0.543 OA
ENDBRANCH  11  20
ENDBRANCH   8  11
ENDBRANCH   1   8
TORSDOF 5
ENDMDL
MODEL 2
REMARK VINA RESULT:    -7.389      1.916      2.877
REMARK INTER + INTRA:         -10.114
REMARK INTER:                 -10.043
REMARK INTRA:                  -0.071
REMARK UNBOUND:                -0.566
REMARK SMILES CCNC(=O)C[NH2+][C@]1(C(=O)[O-])CCc2ccccc21
REMARK SMILES IDX 6 1 4 2 3 3 5 4 2 6 1 7 7 8 8 11 12 12 19 13 13 14 14 15
REMARK SMILES IDX 18 16 15 17 17 18 16 19 9 20 10 21 11 22
REMARK H PARENT 3 5 7 9 7 10
ROOT
ATOM      1  C   UNL     1      52.954  54.201  19.662  1.00  0.00    +0.362 C 
ENDROOT
BRANCH   1   2
ATOM      2  C   UNL     1      52.918  52.894  18.872  1.00  0.00    +0.275 C 
ATOM      3  N   UNL     1      52.514  51.806  19.615  1.00  0.00    -0.351 N 
ATOM      4  O   UNL     1      53.270  52.839  17.698  1.00  0.00    -0.269 OA
ATOM      5  H   UNL     1      52.258  51.927  20.612  1.00  0.00    +0.163 HD
BRANCH   3   6
ATOM      6  C   UNL     1      52.447  50.469  19.066  1.00  0.00    +0.112 C 
ATOM      7  C   UNL     1      51.498  49.595  19.866  1.00  0.00    +0.027 C 
ENDBRANCH   3   6
ENDBRANCH   1   2
BRANCH   1   8
ATOM      8  N   UNL     1      51.650  54.936  19.553  1.00  0.00    -0.325 N 
ATOM      9  H   UNL     1      51.888  55.906  19.833  1.00  0.00    +0.347 HD
ATOM     10  H   UNL     1      51.260  54.980  18.610  1.00  0.00    +0.347 HD
BRANCH   8  11
ATOM     11  C   UNL     1      50.617  54.612  20.637  1.00  0.00    +0.163 C 
ATOM     12  C   UNL     1      49.474  53.759  20.051  1.00  0.00    +0.085 C 
ATOM     13  C   UNL     1      49.870  55.893  20.952  1.00  0.00    +0.022 A 
ATOM     14  C   UNL     1      48.474  54.726  19.400  1.00  0.00    +0.043 C 
ATOM     15  C   UNL     1      48.667  55.953  20.233  1.00  0.00    -0.038 A 
ATOM     16  C   UNL     1      50.263  56.952  21.760  1.00  0.00    +0.011 A 
ATOM     17  C   UNL     1      47.840  57.060  20.309  1.00  0.00    +0.004 A 
ATOM     18  C   UNL     1      49.429  58.068  21.850  1.00  0.00    +0.001 A 
ATOM     19  C   UNL     1      48.227  58.122  21.129  1.00  0.00    +0.000 A 
BRANCH  11  20
ATOM     20  C   UNL     1      51.336  54.055  21.924  1.00  0.00    +0.108 C 
ATOM     21  O   UNL     1      52.000  54.844  22.629  1.00  0.00    -0.543 OA
ATOM     22  O   UNL     1      51.014  52.829  22.120  1.00  0.00    -0.543 OA
ENDBRANCH  11  20
ENDBRANCH   8  11
ENDBRANCH   1   8
TORSDOF 5
ENDMDL
MODEL 3
REMARK VINA RESULT:    -6.844      2.234      5.641
REMARK INTER + INTRA:          -9.411
REMARK INTER:                  -9.166
REMARK INTRA:                  -0.245
REMARK UNBOUND:                -0.566
REMARK SMILES CCNC(=O)C[NH2+][C@]1(C(=O)[O-])CCc2ccccc21
REMARK SMILES IDX 6 1 4 2 3 3 5 4 2 6 1 7 7 8 8 11 12 12 19 13 13 14 14 15
REMARK SMILES IDX 18 16 15 17 17 18 16 19 9 20 10 21 11 22
REMARK H PARENT 3 5 7 9 7 10
ROOT
ATOM      1  C   UNL     1      51.953  52.742  21.335  1.00  0.00    +0.362 C 
ENDROOT
BRANCH   1   2
ATOM      2  C   UNL     1      51.436  54.114  21.765  1.00  0.00    +0.275 C 
ATOM      3  N   UNL     1      50.624  54.719  20.831  1.00  0.00    -0.351 N 
ATOM      4  O   UNL     1      51.771  54.627  22.828  1.00  0.00    -0.269 OA
ATOM      5  H   UNL     1      50.408  54.234  19.941  1.00  0.00    +0.163 HD
BRANCH   3   6
ATOM      6  C   UNL     1      50.061  56.038  21.026  1.00  0.00    +0.112 C 
ATOM      7  C   UNL     1      48.754  56.193  20.271  1.00  0.00    +0.027 C 
ENDBRANCH   3   6
ENDBRANCH   1   2
BRANCH   1   8
ATOM      8  N   UNL     1      50.865  51.931  20.692  1.00  0.00    -0.325 N 
ATOM      9  H   UNL     1      50.907  51.022  21.189  1.00  0.00    +0.347 HD
ATOM     10  H   UNL     1      49.922  52.302  20.819  1.00  0.00    +0.347 HD
BRANCH   8  11
ATOM     11  C   UNL     1      51.156  51.449  19.268  1.00  0.00    +0.163 C 
ATOM     12  C   UNL     1      51.058  52.623  18.273  1.00  0.00    +0.085 C 
ATOM     13  C   UNL     1      49.974  50.611  18.820  1.00  0.00    +0.022 A 
ATOM     14  C   UNL     1      49.575  52.785  17.906  1.00  0.00    +0.043 C 
ATOM     15  C   UNL     1      49.079  51.384  18.065  1.00  0.00    -0.038 A 
ATOM     16  C   UNL     1      49.685  49.286  19.121  1.00  0.00    +0.011 A 
ATOM     17  C   UNL     1      47.890  50.851  17.597  1.00  0.00    +0.004 A 
ATOM     18  C   UNL     1      48.492  48.739  18.644  1.00  0.00    +0.001 A 
ATOM     19  C   UNL     1      47.601  49.516  17.889  1.00  0.00    +0.000 A 
BRANCH  11  20
ATOM     20  C   UNL     1      52.483  50.600  19.241  1.00  0.00    +0.108 C 
ATOM     21  O   UNL     1      52.874  50.066  20.301  1.00  0.00    -0.543 OA
ATOM     22  O   UNL     1      52.919  50.490  18.040  1.00  0.00    -0.543 OA
ENDBRANCH  11  20
ENDBRANCH   8  11
ENDBRANCH   1   8
TORSDOF 5
ENDMDL
MODEL 4
REMARK VINA RESULT:    -6.765      4.254      7.129
REMARK INTER + INTRA:          -9.308
REMARK INTER:                  -8.821
REMARK INTRA:                  -0.487
REMARK UNBOUND:                -0.566
REMARK SMILES CCNC(=O)C[NH2+][C@]1(C(=O)[O-])CCc2ccccc21
REMARK SMILES IDX 6 1 4 2 3 3 5 4 2 6 1 7 7 8 8 11 12 12 19 13 13 14 14 15
REMARK SMILES IDX 18 16 15 17 17 18 16 19 9 20 10 21 11 22
REMARK H PARENT 3 5 7 9 7 10
ROOT
ATOM      1  C   UNL     1      50.909  50.935  17.491  1.00  0.00    +0.362 C 
ENDROOT
BRANCH   1   2
ATOM      2  C   UNL     1      51.549  50.760  18.867  1.00  0.00    +0.275 C 
ATOM      3  N   UNL     1      50.780  51.249  19.902  1.00  0.00    -0.351 N 
ATOM      4  O   UNL     1      52.665  50.273  19.004  1.00  0.00    -0.269 OA
ATOM      5  H   UNL     1      49.856  51.674  19.705  1.00  0.00    +0.163 HD
BRANCH   3   6
ATOM      6  C   UNL     1      51.219  51.217  21.281  1.00  0.00    +0.112 C 
ATOM      7  C   UNL     1      51.554  52.609  21.782  1.00  0.00    +0.027 C 
ENDBRANCH   3   6
ENDBRANCH   1   2
BRANCH   1   8
ATOM      8  N   UNL     1      50.035  49.765  17.147  1.00  0.00    -0.325 N 
ATOM      9  H   UNL     1      50.670  49.121  16.638  1.00  0.00    +0.347 HD
ATOM     10  H   UNL     1      49.667  49.253  17.951  1.00  0.00    +0.347 HD
BRANCH   8  11
ATOM     11  C   UNL     1      49.000  50.015  16.046  1.00  0.00    +0.163 C 
ATOM     12  C   UNL     1      48.390  51.423  16.192  1.00  0.00    +0.085 C 
ATOM     13  C   UNL     1      47.788  49.158  16.357  1.00  0.00    +0.022 A 
ATOM     14  C   UNL     1      47.256  51.323  17.222  1.00  0.00    +0.043 C 
ATOM     15  C   UNL     1      46.816  49.906  17.038  1.00  0.00    -0.038 A 
ATOM     16  C   UNL     1      47.596  47.804  16.116  1.00  0.00    +0.011 A 
ATOM     17  C   UNL     1      45.642  49.321  17.483  1.00  0.00    +0.004 A 
ATOM     18  C   UNL     1      46.411  47.209  16.553  1.00  0.00    +0.001 A 
ATOM     19  C   UNL     1      45.442  47.963  17.233  1.00  0.00    +0.000 A 
BRANCH  11  20
ATOM     20  C   UNL     1      49.602  49.639  14.639  1.00  0.00    +0.108 C 
ATOM     21  O   UNL     1      50.670  48.992  14.597  1.00  0.00    -0.543 OA
ATOM     22  O   UNL     1      48.794  49.979  13.702  1.00  0.00    -0.543 OA
ENDBRANCH  11  20
ENDBRANCH   8  11
ENDBRANCH   1   8
TORSDOF 5
ENDMDL
MODEL 5
REMARK VINA RESULT:    -6.480      4.414      7.915
REMARK INTER + INTRA:          -8.940
REMARK INTER:                  -8.267
REMARK INTRA:                  -0.673
REMARK UNBOUND:                -0.566
REMARK SMILES CCNC(=O)C[NH2+][C@]1(C(=O)[O-])CCc2ccccc21
REMARK SMILES IDX 6 1 4 2 3 3 5 4 2 6 1 7 7 8 8 11 12 12 19 13 13 14 14 15
REMARK SMILES IDX 18 16 15 17 17 18 16 19 9 20 10 21 11 22
REMARK H PARENT 3 5 7 9 7 10
ROOT
ATOM      1  C   UNL     1      48.649  52.080  16.486  1.00  0.00    +0.362 C 
ENDROOT
BRANCH   1   2
ATOM      2  C   UNL     1      49.085  53.224  17.400  1.00  0.00    +0.275 C 
ATOM      3  N   UNL     1      50.229  52.954  18.120  1.00  0.00    -0.351 N 
ATOM      4  O   UNL     1      48.430  54.256  17.501  1.00  0.00    -0.269 OA
ATOM      5  H   UNL     1      50.714  52.045  18.000  1.00  0.00    +0.163 HD
BRANCH   3   6
ATOM      6  C   UNL     1      50.789  53.889  19.071  1.00  0.00    +0.112 C 
ATOM      7  C   UNL     1      50.326  53.578  20.482  1.00  0.00    +0.027 C 
ENDBRANCH   3   6
ENDBRANCH   1   2
BRANCH   1   8
ATOM      8  N   UNL     1      47.732  51.133  17.203  1.00  0.00    -0.325 N 
ATOM      9  H   UNL     1      47.940  51.297  18.206  1.00  0.00    +0.347 HD
ATOM     10  H   UNL     1      46.736  51.316  17.068  1.00  0.00    +0.347 HD
BRANCH   8  11
ATOM     11  C   UNL     1      48.108  49.651  17.110  1.00  0.00    +0.163 C 
ATOM     12  C   UNL     1      48.527  49.293  15.670  1.00  0.00    +0.085 C 
ATOM     13  C   UNL     1      46.828  48.847  17.230  1.00  0.00    +0.022 A 
ATOM     14  C   UNL     1      47.241  49.007  14.880  1.00  0.00    +0.043 C 
ATOM     15  C   UNL     1      46.338  48.504  15.961  1.00  0.00    -0.038 A 
ATOM     16  C   UNL     1      46.118  48.510  18.376  1.00  0.00    +0.011 A 
ATOM     17  C   UNL     1      45.144  47.820  15.814  1.00  0.00    +0.004 A 
ATOM     18  C   UNL     1      44.918  47.812  18.236  1.00  0.00    +0.001 A 
ATOM     19  C   UNL     1      44.434  47.470  16.964  1.00  0.00    +0.000 A 
BRANCH  11  20
ATOM     20  C   UNL     1      49.115  49.272  18.261  1.00  0.00    +0.108 C 
ATOM     21  O   UNL     1      49.476  50.163  19.059  1.00  0.00    -0.543 OA
ATOM     22  O   UNL     1      49.330  48.008  18.268  1.00  0.00    -0.543 OA
ENDBRANCH  11  20
ENDBRANCH   8  11
ENDBRANCH   1   8
TORSDOF 5
ENDMDL
