MODEL 1
REMARK VINA RESULT:    -6.390      0.000      0.000
REMARK INTER + INTRA:         -10.074
REMARK INTER:                  -9.192
REMARK INTRA:                  -0.881
REMARK UNBOUND:                -0.881
REMARK SMILES CCC[C@@](SCC[NH3+])(C(=O)[O-])c1ccccc1
REMARK SMILES IDX 5 1 4 2 3 3 2 4 1 5 12 6 13 7 17 8 14 9 16 10 15 11 9 12
REMARK SMILES IDX 10 13 11 14 6 15 7 16 8 17
REMARK H PARENT 8 18 8 19 8 20
ROOT
ATOM      1  S   UNL     1      51.464  53.794  21.701  1.00  0.00    -0.138 SA
ENDROOT
BRANCH   1   2
ATOM      2  C   UNL     1      50.575  54.490  20.116  1.00  0.00    +0.080 C 
BRANCH   2   3
ATOM      3  C   UNL     1      49.577  53.450  19.529  1.00  0.00    +0.028 C 
BRANCH   3   4
ATOM      4  C   UNL     1      49.656  53.196  18.012  1.00  0.00    -0.001 C 
ATOM      5  C   UNL     1      48.286  53.319  17.351  1.00  0.00    +0.004 C 
ENDBRANCH   3   4
ENDBRANCH   2   3
BRANCH   2   6
ATOM      6  C   UNL     1      49.779  55.762  20.526  1.00  0.00    -0.026 A 
ATOM      7  C   UNL     1      48.515  56.047  19.977  1.00  0.00    +0.005 A 
ATOM      8  C   UNL     1      50.265  56.648  21.519  1.00  0.00    +0.005 A 
ATOM      9  C   UNL     1      47.825  57.211  20.335  1.00  0.00    +0.000 A 
ATOM     10  C   UNL     1      49.566  57.804  21.885  1.00  0.00    +0.000 A 
ATOM     11  C   UNL     1      48.342  58.083  21.294  1.00  0.00    +0.000 A 
ENDBRANCH   2   6
BRANCH   2  12
ATOM     12  C   UNL     1      51.749  54.876  19.123  1.00  0.00    +0.062 C 
ATOM     13  O   UNL     1      51.753  56.079  18.680  1.00  0.00    -0.548 OA
ATOM     14  O   UNL     1      52.637  54.005  18.911  1.00  0.00    -0.548 OA
ENDBRANCH   2  12
ENDBRANCH   1   2
BRANCH   1  15
ATOM     15  C   UNL     1      51.109  51.985  21.639  1.00  0.00    +0.132 C 
BRANCH  15  16
ATOM     16  C   UNL     1      52.330  51.177  21.126  1.00  0.00    +0.269 C 
BRANCH  16  17
ATOM     17  N   UNL     1      52.384  51.125  19.653  1.00  0.00    -0.357 N 
ATOM     18  H   UNL     1      51.702  51.660  19.116  1.00  0.00    +0.344 HD
ATOM     19  H   UNL     1      52.402  50.149  19.318  1.00  0.00    +0.344 HD
ATOM     20  H   UNL     1      53.358  51.419  19.353  1.00  0.00    +0.344 HD
ENDBRANCH  16  17
ENDBRANCH  15  16
ENDBRANCH   1  15
TORSDOF 8
ENDMDL
MODEL 2
REMARK VINA RESULT:    -6.266      2.239      3.218
REMARK INTER + INTRA:          -9.895
REMARK INTER:                  -9.778
REMARK INTRA:                  -0.117
REMARK UNBOUND:                -0.881
REMARK SMILES CCC[C@@](SCC[NH3+])(C(=O)[O-])c1ccccc1
REMARK SMILES IDX 5 1 4 2 3 3 2 4 1 5 12 6 13 7 17 8 14 9 16 10 15 11 9 12
REMARK SMILES IDX 10 13 11 14 6 15 7 16 8 17
REMARK H PARENT 8 18 8 19 8 20
ROOT
ATOM      1  S   UNL     1      50.626  53.410  20.098  1.00  0.00    -0.138 SA
ENDROOT
BRANCH   1   2
ATOM      2  C   UNL     1      51.197  55.091  20.896  1.00  0.00    +0.080 C 
BRANCH   2   3
ATOM      3  C   UNL     1      52.365  55.728  20.091  1.00  0.00    +0.028 C 
BRANCH   3   4
ATOM      4  C   UNL     1      52.543  57.253  20.220  1.00  0.00    -0.001 C 
ATOM      5  C   UNL     1      53.934  57.614  20.734  1.00  0.00    +0.004 C 
ENDBRANCH   3   4
ENDBRANCH   2   3
BRANCH   2   6
ATOM      6  C   UNL     1      49.989  56.072  20.874  1.00  0.00    -0.026 A 
ATOM      7  C   UNL     1      48.870  55.842  20.053  1.00  0.00    +0.005 A 
ATOM      8  C   UNL     1      49.938  57.199  21.731  1.00  0.00    +0.005 A 
ATOM      9  C   UNL     1      47.805  56.749  20.023  1.00  0.00    +0.000 A 
ATOM     10  C   UNL     1      48.865  58.098  21.708  1.00  0.00    +0.000 A 
ATOM     11  C   UNL     1      47.794  57.869  20.855  1.00  0.00    +0.000 A 
ENDBRANCH   2   6
BRANCH   2  12
ATOM     12  C   UNL     1      51.577  54.726  22.391  1.00  0.00    +0.062 C 
ATOM     13  O   UNL     1      51.299  53.536  22.779  1.00  0.00    -0.548 OA
ATOM     14  O   UNL     1      52.200  55.597  23.059  1.00  0.00    -0.548 OA
ENDBRANCH   2  12
ENDBRANCH   1   2
BRANCH   1  15
ATOM     15  C   UNL     1      52.208  52.502  19.825  1.00  0.00    +0.132 C 
BRANCH  15  16
ATOM     16  C   UNL     1      52.121  51.035  20.322  1.00  0.00    +0.269 C 
BRANCH  16  17
ATOM     17  N   UNL     1      52.379  50.922  21.770  1.00  0.00    -0.357 N 
ATOM     18  H   UNL     1      51.598  50.727  22.395  1.00  0.00    +0.344 HD
ATOM     19  H   UNL     1      52.908  51.737  22.116  1.00  0.00    +0.344 HD
ATOM     20  H   UNL     1      53.119  50.175  21.909  1.00  0.00    +0.344 HD
ENDBRANCH  16  17
ENDBRANCH  15  16
ENDBRANCH   1  15
TORSDOF 8
ENDMDL
MODEL 3
REMARK VINA RESULT:    -6.223      2.331      3.624
REMARK INTER + INTRA:          -9.833
REMARK INTER:                  -9.076
REMARK INTRA:                  -0.757
REMARK UNBOUND:                -0.881
REMARK SMILES CCC[C@@](SCC[NH3+])(C(=O)[O-])c1ccccc1
REMARK SMILES IDX 5 1 4 2 3 3 2 4 1 5 12 6 13 7 17 8 14 9 16 10 15 11 9 12
REMARK SMILES IDX 10 13 11 14 6 15 7 16 8 17
REMARK H PARENT 8 18 8 19 8 20
ROOT
ATOM      1  S   UNL     1      51.800  55.133  19.104  1.00  0.00    -0.138 SA
ENDROOT
BRANCH   1   2
ATOM      2  C   UNL     1      51.284  55.518  20.941  1.00  0.00    +0.080 C 
BRANCH   2   3
ATOM      3  C   UNL     1      52.389  56.327  21.677  1.00  0.00    +0.028 C 
BRANCH   3   4
ATOM      4  C   UNL     1      53.331  57.171  20.797  1.00  0.00    -0.001 C 
ATOM      5  C   UNL     1      53.162  58.663  21.063  1.00  0.00    +0.004 C 
ENDBRANCH   3   4
ENDBRANCH   2   3
BRANCH   2   6
ATOM      6  C   UNL     1      49.984  56.373  20.909  1.00  0.00    -0.026 A 
ATOM      7  C   UNL     1      49.801  57.465  21.777  1.00  0.00    +0.005 A 
ATOM      8  C   UNL     1      48.962  56.127  19.959  1.00  0.00    +0.005 A 
ATOM      9  C   UNL     1      48.614  58.206  21.757  1.00  0.00    +0.000 A 
ATOM     10  C   UNL     1      47.782  56.878  19.932  1.00  0.00    +0.000 A 
ATOM     11  C   UNL     1      47.610  57.922  20.830  1.00  0.00    +0.000 A 
ENDBRANCH   2   6
BRANCH   2  12
ATOM     12  C   UNL     1      50.991  54.102  21.590  1.00  0.00    +0.062 C 
ATOM     13  O   UNL     1      50.090  53.387  21.024  1.00  0.00    -0.548 OA
ATOM     14  O   UNL     1      51.721  53.747  22.556  1.00  0.00    -0.548 OA
ENDBRANCH   2  12
ENDBRANCH   1   2
BRANCH   1  15
ATOM     15  C   UNL     1      52.837  53.615  19.254  1.00  0.00    +0.132 C 
BRANCH  15  16
ATOM     16  C   UNL     1      52.253  52.436  18.433  1.00  0.00    +0.269 C 
BRANCH  16  17
ATOM     17  N   UNL     1      50.829  52.640  18.102  1.00  0.00    -0.357 N 
ATOM     18  H   UNL     1      50.491  53.589  17.950  1.00  0.00    +0.344 HD
ATOM     19  H   UNL     1      50.220  52.157  18.779  1.00  0.00    +0.344 HD
ATOM     20  H   UNL     1      50.611  52.060  17.242  1.00  0.00    +0.344 HD
ENDBRANCH  16  17
ENDBRANCH  15  16
ENDBRANCH   1  15
TORSDOF 8
ENDMDL
MODEL 4
REMARK VINA RESULT:    -5.612      5.647      7.239
REMARK INTER + INTRA:          -8.954
REMARK INTER:                  -8.032
REMARK INTRA:                  -0.922
REMARK UNBOUND:                -0.881
REMARK SMILES CCC[C@@](SCC[NH3+])(C(=O)[O-])c1ccccc1
REMARK SMILES IDX 5 1 4 2 3 3 2 4 1 5 12 6 13 7 17 8 14 9 16 10 15 11 9 12
REMARK SMILES IDX 10 13 11 14 6 15 7 16 8 17
REMARK H PARENT 8 18 8 19 8 20
ROOT
ATOM      1  S   UNL     1      46.947  48.791  18.340  1.00  0.00    -0.138 SA
ENDROOT
BRANCH   1   2
ATOM      2  C   UNL     1      48.341  49.463  17.159  1.00  0.00    +0.080 C 
BRANCH   2   3
ATOM      3  C   UNL     1      47.851  50.705  16.361  1.00  0.00    +0.028 C 
BRANCH   3   4
ATOM      4  C   UNL     1      47.433  51.936  17.186  1.00  0.00    -0.001 C 
ATOM      5  C   UNL     1      47.814  53.237  16.485  1.00  0.00    +0.004 C 
ENDBRANCH   3   4
ENDBRANCH   2   3
BRANCH   2   6
ATOM      6  C   UNL     1      49.555  49.886  18.035  1.00  0.00    -0.026 A 
ATOM      7  C   UNL     1      49.733  49.383  19.337  1.00  0.00    +0.005 A 
ATOM      8  C   UNL     1      50.566  50.741  17.531  1.00  0.00    +0.005 A 
ATOM      9  C   UNL     1      50.815  49.796  20.123  1.00  0.00    +0.000 A 
ATOM     10  C   UNL     1      51.654  51.142  18.315  1.00  0.00    +0.000 A 
ATOM     11  C   UNL     1      51.780  50.664  19.612  1.00  0.00    +0.000 A 
ENDBRANCH   2   6
BRANCH   2  12
ATOM     12  C   UNL     1      48.731  48.230  16.243  1.00  0.00    +0.062 C 
ATOM     13  O   UNL     1      48.591  47.065  16.760  1.00  0.00    -0.548 OA
ATOM     14  O   UNL     1      49.065  48.477  15.051  1.00  0.00    -0.548 OA
ENDBRANCH   2  12
ENDBRANCH   1   2
BRANCH   1  15
ATOM     15  C   UNL     1      45.405  48.988  17.347  1.00  0.00    +0.132 C 
BRANCH  15  16
ATOM     16  C   UNL     1      44.977  47.653  16.681  1.00  0.00    +0.269 C 
BRANCH  16  17
ATOM     17  N   UNL     1      45.660  46.490  17.277  1.00  0.00    -0.357 N 
ATOM     18  H   UNL     1      45.333  45.554  17.042  1.00  0.00    +0.344 HD
ATOM     19  H   UNL     1      45.730  46.586  18.302  1.00  0.00    +0.344 HD
ATOM     20  H   UNL     1      46.690  46.561  17.036  1.00  0.00    +0.344 HD
ENDBRANCH  16  17
ENDBRANCH  15  16
ENDBRANCH   1  15
TORSDOF 8
ENDMDL
MODEL 5
REMARK VINA RESULT:    -5.136      2.029      2.878
REMARK INTER + INTRA:          -8.269
REMARK INTER:                  -7.884
REMARK INTRA:                  -0.385
REMARK UNBOUND:                -0.881
REMARK SMILES CCC[C@@](SCC[NH3+])(C(=O)[O-])c1ccccc1
REMARK SMILES IDX 5 1 4 2 3 3 2 4 1 5 12 6 13 7 17 8 14 9 16 10 15 11 9 12
REMARK SMILES IDX 10 13 11 14 6 15 7 16 8 17
REMARK H PARENT 8 18 8 19 8 20
ROOT
ATOM      1  S   UNL     1      52.257  53.752  19.164  1.00  0.00    -0.138 SA
ENDROOT
BRANCH   1   2
ATOM      2  C   UNL     1      50.422  53.664  19.810  1.00  0.00    +0.080 C 
BRANCH   2   3
ATOM      3  C   UNL     1      50.349  52.971  21.201  1.00  0.00    +0.028 C 
BRANCH   3   4
ATOM      4  C   UNL     1      51.587  53.106  22.107  1.00  0.00    -0.001 C 
ATOM      5  C   UNL     1      51.567  54.413  22.894  1.00  0.00    +0.004 C 
ENDBRANCH   3   4
ENDBRANCH   2   3
BRANCH   2   6
ATOM      6  C   UNL     1      49.890  55.119  19.954  1.00  0.00    -0.026 A 
ATOM      7  C   UNL     1      48.515  55.388  20.090  1.00  0.00    +0.005 A 
ATOM      8  C   UNL     1      50.773  56.224  20.023  1.00  0.00    +0.005 A 
ATOM      9  C   UNL     1      48.050  56.704  20.189  1.00  0.00    +0.000 A 
ATOM     10  C   UNL     1      50.305  57.538  20.135  1.00  0.00    +0.000 A 
ATOM     11  C   UNL     1      48.940  57.778  20.223  1.00  0.00    +0.000 A 
ENDBRANCH   2   6
BRANCH   2  12
ATOM     12  C   UNL     1      49.624  52.899  18.674  1.00  0.00    +0.062 C 
ATOM     13  O   UNL     1      49.373  53.561  17.605  1.00  0.00    -0.548 OA
ATOM     14  O   UNL     1      49.372  51.678  18.866  1.00  0.00    -0.548 OA
ENDBRANCH   2  12
ENDBRANCH   1   2
BRANCH   1  15
ATOM     15  C   UNL     1      52.523  52.099  18.389  1.00  0.00    +0.132 C 
BRANCH  15  16
ATOM     16  C   UNL     1      52.723  50.990  19.455  1.00  0.00    +0.269 C 
BRANCH  16  17
ATOM     17  N   UNL     1      53.101  49.699  18.851  1.00  0.00    -0.357 N 
ATOM     18  H   UNL     1      52.447  49.242  18.217  1.00  0.00    +0.344 HD
ATOM     19  H   UNL     1      53.412  49.030  19.571  1.00  0.00    +0.344 HD
ATOM     20  H   UNL     1      54.024  49.836  18.346  1.00  0.00    +0.344 HD
ENDBRANCH  16  17
ENDBRANCH  15  16
ENDBRANCH   1  15
TORSDOF 8
ENDMDL
