MODEL 1
REMARK VINA RESULT:    -6.786      0.000      0.000
REMARK INTER + INTRA:          -8.978
REMARK INTER:                  -8.373
REMARK INTRA:                  -0.605
REMARK UNBOUND:                -0.605
REMARK SMILES CCn1cc(NC(=O)C[C@@H]2CCC[NH2+]2)ccc1=O
REMARK SMILES IDX 6 1 7 2 8 3 5 5 3 6 4 7 17 8 16 9 18 10 15 11 2 12 1 13 9 14
REMARK SMILES IDX 10 15 11 16 14 17 12 18 13 19
REMARK H PARENT 6 4 14 20 14 21
ROOT
ATOM      1  N   UNL     1      50.116  51.933  19.540  1.00  0.00    -0.325 N 
ATOM      2  C   UNL     1      50.767  51.350  18.467  1.00  0.00    +0.230 C 
ATOM      3  O   UNL     1      51.887  51.624  18.054  1.00  0.00    -0.274 OA
ATOM      4  H   UNL     1      49.190  51.586  19.767  1.00  0.00    +0.169 HD
ENDROOT
BRANCH   1   5
ATOM      5  C   UNL     1      50.576  52.947  20.357  1.00  0.00    +0.057 C 
ATOM      6  N   UNL     1      50.937  55.222  21.001  1.00  0.00    -0.314 N 
ATOM      7  C   UNL     1      50.443  54.265  20.124  1.00  0.00    +0.115 C 
ATOM      8  C   UNL     1      51.574  54.883  22.193  1.00  0.00    +0.250 C 
ATOM      9  C   UNL     1      51.733  53.428  22.444  1.00  0.00    +0.074 C 
ATOM     10  O   UNL     1      51.995  55.683  23.022  1.00  0.00    -0.269 OA
ATOM     11  C   UNL     1      51.259  52.531  21.568  1.00  0.00    +0.033 C 
BRANCH   6  12
ATOM     12  C   UNL     1      50.730  56.638  20.702  1.00  0.00    +0.122 C 
ATOM     13  C   UNL     1      49.380  57.131  21.204  1.00  0.00    +0.028 C 
ENDBRANCH   6  12
ENDBRANCH   1   5
BRANCH   2  14
ATOM     14  C   UNL     1      49.948  50.259  17.804  1.00  0.00    +0.165 C 
BRANCH  14  15
ATOM     15  C   UNL     1      49.776  50.564  16.319  1.00  0.00    +0.192 C 
ATOM     16  C   UNL     1      48.634  49.813  15.640  1.00  0.00    +0.071 C 
ATOM     17  N   UNL     1      50.997  50.109  15.536  1.00  0.00    -0.343 N 
ATOM     18  C   UNL     1      49.056  49.795  14.183  1.00  0.00    +0.067 C 
ATOM     19  C   UNL     1      50.532  49.468  14.256  1.00  0.00    +0.260 C 
ATOM     20  H   UNL     1      51.593  50.922  15.323  1.00  0.00    +0.346 HD
ATOM     21  H   UNL     1      51.581  49.446  16.062  1.00  0.00    +0.346 HD
ENDBRANCH  14  15
ENDBRANCH   2  14
TORSDOF 4
ENDMDL
MODEL 2
REMARK VINA RESULT:    -6.766      1.601      2.171
REMARK INTER + INTRA:          -8.953
REMARK INTER:                  -8.475
REMARK INTRA:                  -0.478
REMARK UNBOUND:                -0.605
REMARK SMILES CCn1cc(NC(=O)C[C@@H]2CCC[NH2+]2)ccc1=O
REMARK SMILES IDX 6 1 7 2 8 3 5 5 3 6 4 7 17 8 16 9 18 10 15 11 2 12 1 13 9 14
REMARK SMILES IDX 10 15 11 16 14 17 12 18 13 19
REMARK H PARENT 6 4 14 20 14 21
ROOT
ATOM      1  N   UNL     1      49.953  52.203  19.073  1.00  0.00    -0.325 N 
ATOM      2  C   UNL     1      50.666  51.463  18.147  1.00  0.00    +0.230 C 
ATOM      3  O   UNL     1      51.880  51.462  17.990  1.00  0.00    -0.274 OA
ATOM      4  H   UNL     1      48.946  52.085  19.088  1.00  0.00    +0.169 HD
ENDROOT
BRANCH   1   5
ATOM      5  C   UNL     1      50.449  53.101  19.998  1.00  0.00    +0.057 C 
ATOM      6  N   UNL     1      50.896  55.275  20.891  1.00  0.00    -0.314 N 
ATOM      7  C   UNL     1      50.369  54.441  19.913  1.00  0.00    +0.115 C 
ATOM      8  C   UNL     1      51.512  54.781  22.038  1.00  0.00    +0.250 C 
ATOM      9  C   UNL     1      51.613  53.302  22.126  1.00  0.00    +0.074 C 
ATOM     10  O   UNL     1      51.961  55.466  22.952  1.00  0.00    -0.269 OA
ATOM     11  C   UNL     1      51.108  52.527  21.157  1.00  0.00    +0.033 C 
BRANCH   6  12
ATOM     12  C   UNL     1      50.747  56.723  20.751  1.00  0.00    +0.122 C 
ATOM     13  C   UNL     1      49.399  57.206  21.267  1.00  0.00    +0.028 C 
ENDBRANCH   6  12
ENDBRANCH   1   5
BRANCH   2  14
ATOM     14  C   UNL     1      49.779  50.576  17.295  1.00  0.00    +0.165 C 
BRANCH  14  15
ATOM     15  C   UNL     1      48.497  50.236  18.051  1.00  0.00    +0.192 C 
ATOM     16  C   UNL     1      48.327  48.757  18.389  1.00  0.00    +0.071 C 
ATOM     17  N   UNL     1      47.278  50.533  17.193  1.00  0.00    -0.343 N 
ATOM     18  C   UNL     1      46.825  48.612  18.535  1.00  0.00    +0.067 C 
ATOM     19  C   UNL     1      46.286  49.415  17.371  1.00  0.00    +0.260 C 
ATOM     20  H   UNL     1      46.857  51.425  17.490  1.00  0.00    +0.346 HD
ATOM     21  H   UNL     1      47.510  50.634  16.196  1.00  0.00    +0.346 HD
ENDBRANCH  14  15
ENDBRANCH   2  14
TORSDOF 4
ENDMDL
MODEL 3
REMARK VINA RESULT:    -6.635      2.525      3.504
REMARK INTER + INTRA:          -8.792
REMARK INTER:                  -8.362
REMARK INTRA:                  -0.430
REMARK UNBOUND:                -0.605
REMARK SMILES CCn1cc(NC(=O)C[C@@H]2CCC[NH2+]2)ccc1=O
REMARK SMILES IDX 6 1 7 2 8 3 5 5 3 6 4 7 17 8 16 9 18 10 15 11 2 12 1 13 9 14
REMARK SMILES IDX 10 15 11 16 14 17 12 18 13 19
REMARK H PARENT 6 4 14 20 14 21
ROOT
ATOM      1  N   UNL     1      49.411  53.684  19.096  1.00  0.00    -0.325 N 
ATOM      2  C   UNL     1      50.454  53.109  18.392  1.00  0.00    +0.230 C 
ATOM      3  O   UNL     1      51.616  53.495  18.359  1.00  0.00    -0.274 OA
ATOM      4  H   UNL     1      48.504  53.237  19.031  1.00  0.00    +0.169 HD
ENDROOT
BRANCH   1   5
ATOM      5  C   UNL     1      49.451  54.813  19.891  1.00  0.00    +0.057 C 
ATOM      6  N   UNL     1      50.403  56.301  21.503  1.00  0.00    -0.314 N 
ATOM      7  C   UNL     1      50.442  55.143  20.739  1.00  0.00    +0.115 C 
ATOM      8  C   UNL     1      49.353  57.214  21.422  1.00  0.00    +0.250 C 
ATOM      9  C   UNL     1      48.253  56.843  20.496  1.00  0.00    +0.074 C 
ATOM     10  O   UNL     1      49.283  58.269  22.043  1.00  0.00    -0.269 OA
ATOM     11  C   UNL     1      48.314  55.710  19.785  1.00  0.00    +0.033 C 
BRANCH   6  12
ATOM     12  C   UNL     1      51.530  56.615  22.382  1.00  0.00    +0.122 C 
ATOM     13  C   UNL     1      52.719  57.159  21.605  1.00  0.00    +0.028 C 
ENDBRANCH   6  12
ENDBRANCH   1   5
BRANCH   2  14
ATOM     14  C   UNL     1      50.034  51.869  17.627  1.00  0.00    +0.165 C 
BRANCH  14  15
ATOM     15  C   UNL     1      50.569  50.619  18.321  1.00  0.00    +0.192 C 
ATOM     16  C   UNL     1      49.496  49.660  18.828  1.00  0.00    +0.071 C 
ATOM     17  N   UNL     1      51.319  50.994  19.589  1.00  0.00    -0.343 N 
ATOM     18  C   UNL     1      50.205  48.913  19.942  1.00  0.00    +0.067 C 
ATOM     19  C   UNL     1      50.957  50.008  20.667  1.00  0.00    +0.260 C 
ATOM     20  H   UNL     1      52.334  50.961  19.412  1.00  0.00    +0.346 HD
ATOM     21  H   UNL     1      51.107  51.948  19.908  1.00  0.00    +0.346 HD
ENDBRANCH  14  15
ENDBRANCH   2  14
TORSDOF 4
ENDMDL
MODEL 4
REMARK VINA RESULT:    -6.410      3.246      5.063
REMARK INTER + INTRA:          -8.514
REMARK INTER:                  -7.889
REMARK INTRA:                  -0.625
REMARK UNBOUND:                -0.605
REMARK SMILES CCn1cc(NC(=O)C[C@@H]2CCC[NH2+]2)ccc1=O
REMARK SMILES IDX 6 1 7 2 8 3 5 5 3 6 4 7 17 8 16 9 18 10 15 11 2 12 1 13 9 14
REMARK SMILES IDX 10 15 11 16 14 17 12 18 13 19
REMARK H PARENT 6 4 14 20 14 21
ROOT
ATOM      1  N   UNL     1      48.441  49.575  16.950  1.00  0.00    -0.325 N 
ATOM      2  C   UNL     1      48.280  48.445  16.169  1.00  0.00    +0.230 C 
ATOM      3  O   UNL     1      49.019  47.469  16.133  1.00  0.00    -0.274 OA
ATOM      4  H   UNL     1      47.733  50.297  16.876  1.00  0.00    +0.169 HD
ENDROOT
BRANCH   1   5
ATOM      5  C   UNL     1      49.465  49.850  17.836  1.00  0.00    +0.057 C 
ATOM      6  N   UNL     1      51.416  50.994  18.613  1.00  0.00    -0.314 N 
ATOM      7  C   UNL     1      50.420  50.781  17.668  1.00  0.00    +0.115 C 
ATOM      8  C   UNL     1      51.475  50.281  19.808  1.00  0.00    +0.250 C 
ATOM      9  C   UNL     1      50.428  49.243  19.988  1.00  0.00    +0.074 C 
ATOM     10  O   UNL     1      52.307  50.451  20.693  1.00  0.00    -0.269 OA
ATOM     11  C   UNL     1      49.491  49.052  19.049  1.00  0.00    +0.033 C 
BRANCH   6  12
ATOM     12  C   UNL     1      52.407  52.045  18.381  1.00  0.00    +0.122 C 
ATOM     13  C   UNL     1      51.879  53.416  18.774  1.00  0.00    +0.028 C 
ENDBRANCH   6  12
ENDBRANCH   1   5
BRANCH   2  14
ATOM     14  C   UNL     1      47.028  48.494  15.315  1.00  0.00    +0.165 C 
BRANCH  14  15
ATOM     15  C   UNL     1      45.836  47.957  16.103  1.00  0.00    +0.192 C 
ATOM     16  C   UNL     1      45.178  48.968  17.037  1.00  0.00    +0.071 C 
ATOM     17  N   UNL     1      46.277  46.852  17.050  1.00  0.00    -0.343 N 
ATOM     18  C   UNL     1      44.512  48.088  18.078  1.00  0.00    +0.067 C 
ATOM     19  C   UNL     1      45.562  47.035  18.362  1.00  0.00    +0.260 C 
ATOM     20  H   UNL     1      46.036  45.935  16.646  1.00  0.00    +0.346 HD
ATOM     21  H   UNL     1      47.293  46.847  17.207  1.00  0.00    +0.346 HD
ENDBRANCH  14  15
ENDBRANCH   2  14
TORSDOF 4
ENDMDL
MODEL 5
REMARK VINA RESULT:    -6.362      3.199      7.554
REMARK INTER + INTRA:          -8.454
REMARK INTER:                  -7.724
REMARK INTRA:                  -0.730
REMARK UNBOUND:                -0.605
REMARK SMILES CCn1cc(NC(=O)C[C@@H]2CCC[NH2+]2)ccc1=O
REMARK SMILES IDX 6 1 7 2 8 3 5 5 3 6 4 7 17 8 16 9 18 10 15 11 2 12 1 13 9 14
REMARK SMILES IDX 10 15 11 16 14 17 12 18 13 19
REMARK H PARENT 6 4 14 20 14 21
ROOT
ATOM      1  N   UNL     1      49.867  49.499  17.815  1.00  0.00    -0.325 N 
ATOM      2  C   UNL     1      50.134  50.855  17.887  1.00  0.00    +0.230 C 
ATOM      3  O   UNL     1      49.320  51.766  17.824  1.00  0.00    -0.274 OA
ATOM      4  H   UNL     1      50.653  48.865  17.895  1.00  0.00    +0.169 HD
ENDROOT
BRANCH   1   5
ATOM      5  C   UNL     1      48.639  48.890  17.643  1.00  0.00    +0.057 C 
ATOM      6  N   UNL     1      46.922  47.775  16.406  1.00  0.00    -0.314 N 
ATOM      7  C   UNL     1      48.172  48.374  16.493  1.00  0.00    +0.115 C 
ATOM      8  C   UNL     1      46.082  47.641  17.510  1.00  0.00    +0.250 C 
ATOM      9  C   UNL     1      46.592  48.224  18.778  1.00  0.00    +0.074 C 
ATOM     10  O   UNL     1      44.986  47.090  17.502  1.00  0.00    -0.269 OA
ATOM     11  C   UNL     1      47.796  48.809  18.822  1.00  0.00    +0.033 C 
BRANCH   6  12
ATOM     12  C   UNL     1      46.489  47.206  15.131  1.00  0.00    +0.122 C 
ATOM     13  C   UNL     1      45.811  48.244  14.249  1.00  0.00    +0.028 C 
ENDBRANCH   6  12
ENDBRANCH   1   5
BRANCH   2  14
ATOM     14  C   UNL     1      51.609  51.153  18.082  1.00  0.00    +0.165 C 
BRANCH  14  15
ATOM     15  C   UNL     1      51.835  51.800  19.446  1.00  0.00    +0.192 C 
ATOM     16  C   UNL     1      51.180  51.073  20.617  1.00  0.00    +0.071 C 
ATOM     17  N   UNL     1      51.192  53.177  19.496  1.00  0.00    -0.343 N 
ATOM     18  C   UNL     1      51.020  52.169  21.653  1.00  0.00    +0.067 C 
ATOM     19  C   UNL     1      50.529  53.345  20.837  1.00  0.00    +0.260 C 
ATOM     20  H   UNL     1      51.915  53.900  19.371  1.00  0.00    +0.346 HD
ATOM     21  H   UNL     1      50.501  53.319  18.748  1.00  0.00    +0.346 HD
ENDBRANCH  14  15
ENDBRANCH   2  14
TORSDOF 4
ENDMDL
