MODEL 1
REMARK VINA RESULT:    -8.014      0.000      0.000
REMARK INTER + INTRA:         -10.885
REMARK INTER:                 -10.356
REMARK INTRA:                  -0.528
REMARK UNBOUND:                -0.528
REMARK SMILES CC[NH2+]Cc1ccc(N2CCCC[C@H]2C(N)=O)c(F)c1
REMARK SMILES IDX 5 1 6 2 7 3 8 4 18 5 20 6 19 7 4 8 3 9 2 12 1 13 9 14 10 15
REMARK SMILES IDX 14 16 11 17 13 18 12 19 15 20 17 21 16 22
REMARK H PARENT 3 10 3 11 16 23 16 24
ROOT
ATOM      1  C   UNL     1      52.003  55.420  21.107  1.00  0.00    +0.009 A 
ATOM      2  C   UNL     1      52.088  55.086  19.751  1.00  0.00    +0.012 A 
ATOM      3  C   UNL     1      51.601  53.854  19.284  1.00  0.00    +0.029 A 
ATOM      4  C   UNL     1      51.006  52.912  20.135  1.00  0.00    +0.074 A 
ATOM      5  C   UNL     1      50.964  53.266  21.500  1.00  0.00    +0.147 A 
ATOM      6  C   UNL     1      51.445  54.488  21.983  1.00  0.00    +0.051 A 
ATOM      7  F   UNL     1      50.495  52.402  22.414  1.00  0.00    -0.205 F 
ENDROOT
BRANCH   1   8
ATOM      8  C   UNL     1      52.551  56.718  21.619  1.00  0.00    +0.297 C 
BRANCH   8   9
ATOM      9  N   UNL     1      51.444  57.620  22.052  1.00  0.00    -0.343 N 
ATOM     10  H   UNL     1      51.873  58.504  22.358  1.00  0.00    +0.346 HD
ATOM     11  H   UNL     1      51.010  57.231  22.900  1.00  0.00    +0.346 HD
BRANCH   9  12
ATOM     12  C   UNL     1      50.402  57.922  21.031  1.00  0.00    +0.257 C 
ATOM     13  C   UNL     1      49.014  57.708  21.600  1.00  0.00    +0.071 C 
ENDBRANCH   9  12
ENDBRANCH   8   9
ENDBRANCH   1   8
BRANCH   4  14
ATOM     14  N   UNL     1      50.510  51.684  19.687  1.00  0.00    -0.357 N 
ATOM     15  C   UNL     1      49.974  51.667  18.308  1.00  0.00    +0.117 C 
ATOM     16  C   UNL     1      51.112  50.400  20.136  1.00  0.00    +0.171 C 
ATOM     17  C   UNL     1      48.913  50.577  18.181  1.00  0.00    +0.022 C 
ATOM     18  C   UNL     1      50.045  49.296  20.019  1.00  0.00    +0.035 C 
ATOM     19  C   UNL     1      49.452  49.218  18.614  1.00  0.00    +0.004 C 
BRANCH  16  20
ATOM     20  C   UNL     1      52.420  50.010  19.389  1.00  0.00    +0.240 C 
ATOM     21  O   UNL     1      52.928  50.649  18.471  1.00  0.00    -0.273 OA
ATOM     22  N   UNL     1      53.074  48.903  19.860  1.00  0.00    -0.368 N 
ATOM     23  H   UNL     1      52.642  48.219  20.466  1.00  0.00    +0.159 HD
ATOM     24  H   UNL     1      53.886  48.606  19.329  1.00  0.00    +0.159 HD
ENDBRANCH  16  20
ENDBRANCH   4  14
TORSDOF 5
ENDMDL
MODEL 2
REMARK VINA RESULT:    -7.890      0.958      1.539
REMARK INTER + INTRA:         -10.724
REMARK INTER:                 -10.209
REMARK INTRA:                  -0.515
REMARK UNBOUND:                -0.528
REMARK SMILES CC[NH2+]Cc1ccc(N2CCCC[C@H]2C(N)=O)c(F)c1
REMARK SMILES IDX 5 1 6 2 7 3 8 4 18 5 20 6 19 7 4 8 3 9 2 12 1 13 9 14 10 15
REMARK SMILES IDX 14 16 11 17 13 18 12 19 15 20 17 21 16 22
REMARK H PARENT 3 10 3 11 16 23 16 24
ROOT
ATOM      1  C   UNL     1      51.290  55.551  20.467  1.00  0.00    +0.009 A 
ATOM      2  C   UNL     1      51.276  55.080  19.150  1.00  0.00    +0.012 A 
ATOM      3  C   UNL     1      50.947  53.743  18.870  1.00  0.00    +0.029 A 
ATOM      4  C   UNL     1      50.613  52.827  19.878  1.00  0.00    +0.074 A 
ATOM      5  C   UNL     1      50.667  53.325  21.196  1.00  0.00    +0.147 A 
ATOM      6  C   UNL     1      50.993  54.653  21.493  1.00  0.00    +0.051 A 
ATOM      7  F   UNL     1      50.452  52.511  22.242  1.00  0.00    -0.205 F 
ENDROOT
BRANCH   1   8
ATOM      8  C   UNL     1      51.673  56.968  20.778  1.00  0.00    +0.297 C 
BRANCH   8   9
ATOM      9  N   UNL     1      52.407  57.039  22.074  1.00  0.00    -0.343 N 
ATOM     10  H   UNL     1      52.634  56.075  22.350  1.00  0.00    +0.346 HD
ATOM     11  H   UNL     1      51.763  57.376  22.803  1.00  0.00    +0.346 HD
BRANCH   9  12
ATOM     12  C   UNL     1      53.659  57.846  22.080  1.00  0.00    +0.257 C 
ATOM     13  C   UNL     1      54.236  57.953  20.682  1.00  0.00    +0.071 C 
ENDBRANCH   9  12
ENDBRANCH   8   9
ENDBRANCH   1   8
BRANCH   4  14
ATOM     14  N   UNL     1      50.277  51.495  19.617  1.00  0.00    -0.357 N 
ATOM     15  C   UNL     1      49.698  51.222  18.284  1.00  0.00    +0.117 C 
ATOM     16  C   UNL     1      51.070  50.374  20.192  1.00  0.00    +0.171 C 
ATOM     17  C   UNL     1      48.796  49.993  18.355  1.00  0.00    +0.022 C 
ATOM     18  C   UNL     1      50.164  49.131  20.276  1.00  0.00    +0.035 C 
ATOM     19  C   UNL     1      49.536  48.788  18.927  1.00  0.00    +0.004 C 
BRANCH  16  20
ATOM     20  C   UNL     1      52.391  50.067  19.429  1.00  0.00    +0.240 C 
ATOM     21  O   UNL     1      52.888  50.778  18.560  1.00  0.00    -0.273 OA
ATOM     22  N   UNL     1      53.068  48.945  19.828  1.00  0.00    -0.368 N 
ATOM     23  H   UNL     1      52.650  48.212  20.383  1.00  0.00    +0.159 HD
ATOM     24  H   UNL     1      53.890  48.704  19.284  1.00  0.00    +0.159 HD
ENDBRANCH  16  20
ENDBRANCH   4  14
TORSDOF 5
ENDMDL
MODEL 3
REMARK VINA RESULT:    -7.347      3.386      7.266
REMARK INTER + INTRA:         -10.022
REMARK INTER:                  -9.756
REMARK INTRA:                  -0.267
REMARK UNBOUND:                -0.528
REMARK SMILES CC[NH2+]Cc1ccc(N2CCCC[C@H]2C(N)=O)c(F)c1
REMARK SMILES IDX 5 1 6 2 7 3 8 4 18 5 20 6 19 7 4 8 3 9 2 12 1 13 9 14 10 15
REMARK SMILES IDX 14 16 11 17 13 18 12 19 15 20 17 21 16 22
REMARK H PARENT 3 10 3 11 16 23 16 24
ROOT
ATOM      1  C   UNL     1      46.530  49.055  17.770  1.00  0.00    +0.009 A 
ATOM      2  C   UNL     1      47.526  48.567  18.622  1.00  0.00    +0.012 A 
ATOM      3  C   UNL     1      48.725  49.276  18.805  1.00  0.00    +0.029 A 
ATOM      4  C   UNL     1      48.979  50.495  18.160  1.00  0.00    +0.074 A 
ATOM      5  C   UNL     1      47.969  50.944  17.284  1.00  0.00    +0.147 A 
ATOM      6  C   UNL     1      46.770  50.250  17.090  1.00  0.00    +0.051 A 
ATOM      7  F   UNL     1      48.147  52.053  16.549  1.00  0.00    -0.205 F 
ENDROOT
BRANCH   1   8
ATOM      8  C   UNL     1      45.262  48.287  17.542  1.00  0.00    +0.297 C 
BRANCH   8   9
ATOM      9  N   UNL     1      45.552  46.832  17.386  1.00  0.00    -0.343 N 
ATOM     10  H   UNL     1      44.810  46.318  17.880  1.00  0.00    +0.346 HD
ATOM     11  H   UNL     1      46.414  46.607  17.902  1.00  0.00    +0.346 HD
BRANCH   9  12
ATOM     12  C   UNL     1      45.638  46.322  15.989  1.00  0.00    +0.257 C 
ATOM     13  C   UNL     1      45.080  47.336  15.011  1.00  0.00    +0.071 C 
ENDBRANCH   9  12
ENDBRANCH   8   9
ENDBRANCH   1   8
BRANCH   4  14
ATOM     14  N   UNL     1      50.163  51.218  18.335  1.00  0.00    -0.357 N 
ATOM     15  C   UNL     1      50.053  52.458  19.133  1.00  0.00    +0.117 C 
ATOM     16  C   UNL     1      51.479  50.529  18.435  1.00  0.00    +0.171 C 
ATOM     17  C   UNL     1      51.137  53.445  18.706  1.00  0.00    +0.022 C 
ATOM     18  C   UNL     1      52.578  51.515  17.997  1.00  0.00    +0.035 C 
ATOM     19  C   UNL     1      52.526  52.820  18.789  1.00  0.00    +0.004 C 
BRANCH  16  20
ATOM     20  C   UNL     1      51.780  49.925  19.837  1.00  0.00    +0.240 C 
ATOM     21  O   UNL     1      51.211  50.238  20.880  1.00  0.00    -0.273 OA
ATOM     22  N   UNL     1      52.706  48.916  19.871  1.00  0.00    -0.368 N 
ATOM     23  H   UNL     1      53.351  48.730  19.117  1.00  0.00    +0.159 HD
ATOM     24  H   UNL     1      52.955  48.572  20.791  1.00  0.00    +0.159 HD
ENDBRANCH  16  20
ENDBRANCH   4  14
TORSDOF 5
ENDMDL
MODEL 4
REMARK VINA RESULT:    -7.070      3.601      5.742
REMARK INTER + INTRA:          -9.665
REMARK INTER:                  -9.226
REMARK INTRA:                  -0.439
REMARK UNBOUND:                -0.528
REMARK SMILES CC[NH2+]Cc1ccc(N2CCCC[C@H]2C(N)=O)c(F)c1
REMARK SMILES IDX 5 1 6 2 7 3 8 4 18 5 20 6 19 7 4 8 3 9 2 12 1 13 9 14 10 15
REMARK SMILES IDX 14 16 11 17 13 18 12 19 15 20 17 21 16 22
REMARK H PARENT 3 10 3 11 16 23 16 24
ROOT
ATOM      1  C   UNL     1      47.373  58.933  19.333  1.00  0.00    +0.009 A 
ATOM      2  C   UNL     1      47.794  57.914  18.471  1.00  0.00    +0.012 A 
ATOM      3  C   UNL     1      48.631  56.884  18.932  1.00  0.00    +0.029 A 
ATOM      4  C   UNL     1      49.075  56.819  20.261  1.00  0.00    +0.074 A 
ATOM      5  C   UNL     1      48.659  57.877  21.095  1.00  0.00    +0.147 A 
ATOM      6  C   UNL     1      47.827  58.910  20.653  1.00  0.00    +0.051 A 
ATOM      7  F   UNL     1      49.099  57.960  22.362  1.00  0.00    -0.205 F 
ENDROOT
BRANCH   1   8
ATOM      8  C   UNL     1      46.508  60.054  18.841  1.00  0.00    +0.297 C 
BRANCH   8   9
ATOM      9  N   UNL     1      47.227  61.357  18.950  1.00  0.00    -0.343 N 
ATOM     10  H   UNL     1      47.479  61.648  17.996  1.00  0.00    +0.346 HD
ATOM     11  H   UNL     1      48.127  61.202  19.424  1.00  0.00    +0.346 HD
BRANCH   9  12
ATOM     12  C   UNL     1      46.482  62.468  19.607  1.00  0.00    +0.257 C 
ATOM     13  C   UNL     1      44.988  62.303  19.414  1.00  0.00    +0.071 C 
ENDBRANCH   9  12
ENDBRANCH   8   9
ENDBRANCH   1   8
BRANCH   4  14
ATOM     14  N   UNL     1      49.903  55.798  20.739  1.00  0.00    -0.357 N 
ATOM     15  C   UNL     1      49.753  54.482  20.082  1.00  0.00    +0.117 C 
ATOM     16  C   UNL     1      51.273  56.090  21.242  1.00  0.00    +0.171 C 
ATOM     17  C   UNL     1      50.145  53.372  21.054  1.00  0.00    +0.022 C 
ATOM     18  C   UNL     1      51.674  54.979  22.231  1.00  0.00    +0.035 C 
ATOM     19  C   UNL     1      51.548  53.588  21.613  1.00  0.00    +0.004 C 
BRANCH  16  20
ATOM     20  C   UNL     1      52.340  56.270  20.124  1.00  0.00    +0.240 C 
ATOM     21  O   UNL     1      52.198  55.940  18.949  1.00  0.00    -0.273 OA
ATOM     22  N   UNL     1      53.492  56.914  20.491  1.00  0.00    -0.368 N 
ATOM     23  H   UNL     1      53.774  57.042  21.452  1.00  0.00    +0.159 HD
ATOM     24  H   UNL     1      54.217  56.968  19.783  1.00  0.00    +0.159 HD
ENDBRANCH  16  20
ENDBRANCH   4  14
TORSDOF 5
ENDMDL
MODEL 5
REMARK VINA RESULT:    -6.830      2.606      3.452
REMARK INTER + INTRA:          -9.355
REMARK INTER:                  -8.976
REMARK INTRA:                  -0.378
REMARK UNBOUND:                -0.528
REMARK SMILES CC[NH2+]Cc1ccc(N2CCCC[C@H]2C(N)=O)c(F)c1
REMARK SMILES IDX 5 1 6 2 7 3 8 4 18 5 20 6 19 7 4 8 3 9 2 12 1 13 9 14 10 15
REMARK SMILES IDX 14 16 11 17 13 18 12 19 15 20 17 21 16 22
REMARK H PARENT 3 10 3 11 16 23 16 24
ROOT
ATOM      1  C   UNL     1      49.014  57.007  20.807  1.00  0.00    +0.009 A 
ATOM      2  C   UNL     1      50.333  56.749  21.195  1.00  0.00    +0.012 A 
ATOM      3  C   UNL     1      50.976  55.561  20.807  1.00  0.00    +0.029 A 
ATOM      4  C   UNL     1      50.344  54.592  20.014  1.00  0.00    +0.074 A 
ATOM      5  C   UNL     1      49.005  54.868  19.666  1.00  0.00    +0.147 A 
ATOM      6  C   UNL     1      48.350  56.044  20.045  1.00  0.00    +0.051 A 
ATOM      7  F   UNL     1      48.279  53.968  18.985  1.00  0.00    -0.205 F 
ENDROOT
BRANCH   1   8
ATOM      8  C   UNL     1      48.309  58.255  21.246  1.00  0.00    +0.297 C 
BRANCH   8   9
ATOM      9  N   UNL     1      47.103  58.500  20.402  1.00  0.00    -0.343 N 
ATOM     10  H   UNL     1      46.311  58.657  21.041  1.00  0.00    +0.346 HD
ATOM     11  H   UNL     1      46.867  57.634  19.900  1.00  0.00    +0.346 HD
BRANCH   9  12
ATOM     12  C   UNL     1      47.184  59.643  19.451  1.00  0.00    +0.257 C 
ATOM     13  C   UNL     1      47.437  59.152  18.040  1.00  0.00    +0.071 C 
ENDBRANCH   9  12
ENDBRANCH   8   9
ENDBRANCH   1   8
BRANCH   4  14
ATOM     14  N   UNL     1      50.971  53.408  19.613  1.00  0.00    -0.357 N 
ATOM     15  C   UNL     1      52.299  53.561  18.980  1.00  0.00    +0.117 C 
ATOM     16  C   UNL     1      50.786  52.142  20.374  1.00  0.00    +0.171 C 
ATOM     17  C   UNL     1      52.553  52.395  18.028  1.00  0.00    +0.022 C 
ATOM     18  C   UNL     1      51.032  50.961  19.418  1.00  0.00    +0.035 C 
ATOM     19  C   UNL     1      52.394  51.052  18.732  1.00  0.00    +0.004 C 
BRANCH  16  20
ATOM     20  C   UNL     1      51.662  52.032  21.655  1.00  0.00    +0.240 C 
ATOM     21  O   UNL     1      51.780  52.906  22.509  1.00  0.00    -0.273 OA
ATOM     22  N   UNL     1      52.283  50.828  21.856  1.00  0.00    -0.368 N 
ATOM     23  H   UNL     1      52.401  50.136  21.129  1.00  0.00    +0.159 HD
ATOM     24  H   UNL     1      52.911  50.778  22.651  1.00  0.00    +0.159 HD
ENDBRANCH  16  20
ENDBRANCH   4  14
TORSDOF 5
ENDMDL
