MODEL 1
REMARK VINA RESULT:    -6.536      0.000      0.000
REMARK INTER + INTRA:          -8.542
REMARK INTER:                  -8.255
REMARK INTRA:                  -0.287
REMARK UNBOUND:                -0.287
REMARK SMILES COCCc1noc([C@@]2([NH3+])CCC[C@H](C)C2)n1
REMARK SMILES IDX 8 1 17 2 5 3 6 4 7 5 9 6 14 7 13 8 16 9 12 10 11 11 15 12
REMARK SMILES IDX 10 13 4 17 3 18 2 19 1 20
REMARK H PARENT 10 14 10 15 10 16
ROOT
ATOM      1  C   UNL     1      51.338  52.124  18.490  1.00  0.00    +0.287 A 
ATOM      2  N   UNL     1      51.033  53.131  19.281  1.00  0.00    -0.190 NA
ATOM      3  C   UNL     1      52.184  53.888  19.226  1.00  0.00    +0.174 A 
ATOM      4  N   UNL     1      53.147  53.376  18.448  1.00  0.00    -0.062 NA
ATOM      5  O   UNL     1      52.587  52.199  17.958  1.00  0.00    -0.332 OA
ENDROOT
BRANCH   1   6
ATOM      6  C   UNL     1      50.470  50.954  18.124  1.00  0.00    +0.174 C 
ATOM      7  C   UNL     1      48.001  50.253  17.676  1.00  0.00    -0.008 C 
ATOM      8  C   UNL     1      48.471  48.887  18.196  1.00  0.00    +0.004 C 
ATOM      9  C   UNL     1      49.003  51.393  17.956  1.00  0.00    +0.082 C 
ATOM     10  C   UNL     1      49.344  49.030  19.433  1.00  0.00    +0.007 C 
ATOM     11  C   UNL     1      50.631  49.812  19.153  1.00  0.00    +0.079 C 
ATOM     12  C   UNL     1      47.611  50.169  16.199  1.00  0.00    +0.008 C 
BRANCH   6  13
ATOM     13  N   UNL     1      50.950  50.430  16.783  1.00  0.00    -0.345 N 
ATOM     14  H   UNL     1      50.616  49.461  16.664  1.00  0.00    +0.345 HD
ATOM     15  H   UNL     1      51.976  50.357  16.774  1.00  0.00    +0.345 HD
ATOM     16  H   UNL     1      50.645  50.981  15.974  1.00  0.00    +0.345 HD
ENDBRANCH   6  13
ENDBRANCH   1   6
BRANCH   3  17
ATOM     17  C   UNL     1      52.330  55.176  19.944  1.00  0.00    +0.109 C 
BRANCH  17  18
ATOM     18  C   UNL     1      51.707  55.154  21.335  1.00  0.00    +0.168 C 
BRANCH  18  19
ATOM     19  O   UNL     1      52.501  55.973  22.195  1.00  0.00    -0.384 OA
ATOM     20  C   UNL     1      52.693  57.275  21.656  1.00  0.00    +0.194 C 
ENDBRANCH  18  19
ENDBRANCH  17  18
ENDBRANCH   3  17
TORSDOF 5
ENDMDL
MODEL 2
REMARK VINA RESULT:    -6.381      2.207      2.903
REMARK INTER + INTRA:          -8.347
REMARK INTER:                  -8.022
REMARK INTRA:                  -0.325
REMARK UNBOUND:                -0.287
REMARK SMILES COCCc1noc([C@@]2([NH3+])CCC[C@H](C)C2)n1
REMARK SMILES IDX 8 1 17 2 5 3 6 4 7 5 9 6 14 7 13 8 16 9 12 10 11 11 15 12
REMARK SMILES IDX 10 13 4 17 3 18 2 19 1 20
REMARK H PARENT 10 14 10 15 10 16
ROOT
ATOM      1  C   UNL     1      49.177  50.908  18.003  1.00  0.00    +0.287 A 
ATOM      2  N   UNL     1      50.169  50.948  18.867  1.00  0.00    -0.190 NA
ATOM      3  C   UNL     1      50.452  52.297  18.903  1.00  0.00    +0.174 A 
ATOM      4  N   UNL     1      49.680  53.046  18.103  1.00  0.00    -0.062 NA
ATOM      5  O   UNL     1      48.832  52.122  17.500  1.00  0.00    -0.332 OA
ENDROOT
BRANCH   1   6
ATOM      6  C   UNL     1      48.413  49.697  17.546  1.00  0.00    +0.174 C 
ATOM      7  C   UNL     1      46.380  48.939  16.103  1.00  0.00    -0.008 C 
ATOM      8  C   UNL     1      46.321  47.774  17.101  1.00  0.00    +0.004 C 
ATOM      9  C   UNL     1      47.295  50.093  16.563  1.00  0.00    +0.082 C 
ATOM     10  C   UNL     1      46.509  48.253  18.531  1.00  0.00    +0.007 C 
ATOM     11  C   UNL     1      47.880  48.898  18.757  1.00  0.00    +0.079 C 
ATOM     12  C   UNL     1      46.735  48.438  14.701  1.00  0.00    +0.008 C 
BRANCH   6  13
ATOM     13  N   UNL     1      49.384  48.799  16.800  1.00  0.00    -0.345 N 
ATOM     14  H   UNL     1      49.533  47.939  17.351  1.00  0.00    +0.345 HD
ATOM     15  H   UNL     1      50.311  49.241  16.746  1.00  0.00    +0.345 HD
ATOM     16  H   UNL     1      49.083  48.533  15.858  1.00  0.00    +0.345 HD
ENDBRANCH   6  13
ENDBRANCH   1   6
BRANCH   3  17
ATOM     17  C   UNL     1      51.501  52.872  19.777  1.00  0.00    +0.109 C 
BRANCH  17  18
ATOM     18  C   UNL     1      52.004  51.888  20.828  1.00  0.00    +0.168 C 
BRANCH  18  19
ATOM     19  O   UNL     1      51.725  52.431  22.119  1.00  0.00    -0.384 OA
ATOM     20  C   UNL     1      51.610  53.849  22.082  1.00  0.00    +0.194 C 
ENDBRANCH  18  19
ENDBRANCH  17  18
ENDBRANCH   3  17
TORSDOF 5
ENDMDL
MODEL 3
REMARK VINA RESULT:    -6.209      2.484      6.276
REMARK INTER + INTRA:          -8.130
REMARK INTER:                  -7.742
REMARK INTRA:                  -0.388
REMARK UNBOUND:                -0.287
REMARK SMILES COCCc1noc([C@@]2([NH3+])CCC[C@H](C)C2)n1
REMARK SMILES IDX 8 1 17 2 5 3 6 4 7 5 9 6 14 7 13 8 16 9 12 10 11 11 15 12
REMARK SMILES IDX 10 13 4 17 3 18 2 19 1 20
REMARK H PARENT 10 14 10 15 10 16
ROOT
ATOM      1  C   UNL     1      49.863  54.035  19.105  1.00  0.00    +0.287 A 
ATOM      2  N   UNL     1      50.308  52.854  19.483  1.00  0.00    -0.190 NA
ATOM      3  C   UNL     1      49.804  52.037  18.493  1.00  0.00    +0.174 A 
ATOM      4  N   UNL     1      49.086  52.676  17.560  1.00  0.00    -0.062 NA
ATOM      5  O   UNL     1      49.121  54.007  17.967  1.00  0.00    -0.332 OA
ENDROOT
BRANCH   1   6
ATOM      6  C   UNL     1      50.097  55.357  19.779  1.00  0.00    +0.174 C 
ATOM      7  C   UNL     1      50.821  56.447  22.032  1.00  0.00    -0.008 C 
ATOM      8  C   UNL     1      49.914  57.597  21.573  1.00  0.00    +0.004 C 
ATOM      9  C   UNL     1      50.637  55.155  21.208  1.00  0.00    +0.082 C 
ATOM     10  C   UNL     1      48.605  57.081  20.996  1.00  0.00    +0.007 C 
ATOM     11  C   UNL     1      48.816  56.221  19.747  1.00  0.00    +0.079 C 
ATOM     12  C   UNL     1      52.282  56.896  22.092  1.00  0.00    +0.008 C 
BRANCH   6  13
ATOM     13  N   UNL     1      51.162  56.092  18.985  1.00  0.00    -0.345 N 
ATOM     14  H   UNL     1      50.749  56.421  18.098  1.00  0.00    +0.345 HD
ATOM     15  H   UNL     1      51.909  55.444  18.703  1.00  0.00    +0.345 HD
ATOM     16  H   UNL     1      51.577  56.895  19.468  1.00  0.00    +0.345 HD
ENDBRANCH   6  13
ENDBRANCH   1   6
BRANCH   3  17
ATOM     17  C   UNL     1      50.063  50.579  18.451  1.00  0.00    +0.109 C 
BRANCH  17  18
ATOM     18  C   UNL     1      50.386  49.993  19.821  1.00  0.00    +0.168 C 
BRANCH  18  19
ATOM     19  O   UNL     1      51.623  49.286  19.726  1.00  0.00    -0.384 OA
ATOM     20  C   UNL     1      52.735  50.128  20.004  1.00  0.00    +0.194 C 
ENDBRANCH  18  19
ENDBRANCH  17  18
ENDBRANCH   3  17
TORSDOF 5
ENDMDL
MODEL 4
REMARK VINA RESULT:    -6.166      2.519      3.646
REMARK INTER + INTRA:          -8.076
REMARK INTER:                  -7.762
REMARK INTRA:                  -0.314
REMARK UNBOUND:                -0.287
REMARK SMILES COCCc1noc([C@@]2([NH3+])CCC[C@H](C)C2)n1
REMARK SMILES IDX 8 1 17 2 5 3 6 4 7 5 9 6 14 7 13 8 16 9 12 10 11 11 15 12
REMARK SMILES IDX 10 13 4 17 3 18 2 19 1 20
REMARK H PARENT 10 14 10 15 10 16
ROOT
ATOM      1  C   UNL     1      49.202  49.661  17.995  1.00  0.00    +0.287 A 
ATOM      2  N   UNL     1      49.604  49.676  19.249  1.00  0.00    -0.190 NA
ATOM      3  C   UNL     1      50.644  50.580  19.197  1.00  0.00    +0.174 A 
ATOM      4  N   UNL     1      50.873  51.092  17.981  1.00  0.00    -0.062 NA
ATOM      5  O   UNL     1      49.915  50.479  17.177  1.00  0.00    -0.332 OA
ENDROOT
BRANCH   1   6
ATOM      6  C   UNL     1      48.069  48.868  17.409  1.00  0.00    +0.174 C 
ATOM      7  C   UNL     1      45.908  47.551  18.031  1.00  0.00    -0.008 C 
ATOM      8  C   UNL     1      46.247  46.734  16.776  1.00  0.00    +0.004 C 
ATOM      9  C   UNL     1      47.065  48.456  18.503  1.00  0.00    +0.082 C 
ATOM     10  C   UNL     1      47.729  46.403  16.708  1.00  0.00    +0.007 C 
ATOM     11  C   UNL     1      48.604  47.657  16.612  1.00  0.00    +0.079 C 
ATOM     12  C   UNL     1      44.603  48.325  17.841  1.00  0.00    +0.008 C 
BRANCH   6  13
ATOM     13  N   UNL     1      47.338  49.769  16.431  1.00  0.00    -0.345 N 
ATOM     14  H   UNL     1      46.448  50.071  16.856  1.00  0.00    +0.345 HD
ATOM     15  H   UNL     1      47.063  49.239  15.593  1.00  0.00    +0.345 HD
ATOM     16  H   UNL     1      47.861  50.603  16.144  1.00  0.00    +0.345 HD
ENDBRANCH   6  13
ENDBRANCH   1   6
BRANCH   3  17
ATOM     17  C   UNL     1      51.422  50.974  20.395  1.00  0.00    +0.109 C 
BRANCH  17  18
ATOM     18  C   UNL     1      52.503  52.003  20.089  1.00  0.00    +0.168 C 
BRANCH  18  19
ATOM     19  O   UNL     1      52.085  53.263  20.615  1.00  0.00    -0.384 OA
ATOM     20  C   UNL     1      51.666  53.157  21.970  1.00  0.00    +0.194 C 
ENDBRANCH  18  19
ENDBRANCH  17  18
ENDBRANCH   3  17
TORSDOF 5
ENDMDL
MODEL 5
REMARK VINA RESULT:    -6.088      2.167      6.546
REMARK INTER + INTRA:          -7.977
REMARK INTER:                  -7.644
REMARK INTRA:                  -0.333
REMARK UNBOUND:                -0.287
REMARK SMILES COCCc1noc([C@@]2([NH3+])CCC[C@H](C)C2)n1
REMARK SMILES IDX 8 1 17 2 5 3 6 4 7 5 9 6 14 7 13 8 16 9 12 10 11 11 15 12
REMARK SMILES IDX 10 13 4 17 3 18 2 19 1 20
REMARK H PARENT 10 14 10 15 10 16
ROOT
ATOM      1  C   UNL     1      51.092  53.220  20.592  1.00  0.00    +0.287 A 
ATOM      2  N   UNL     1      50.567  52.402  19.703  1.00  0.00    -0.190 NA
ATOM      3  C   UNL     1      50.896  51.171  20.230  1.00  0.00    +0.174 A 
ATOM      4  N   UNL     1      51.587  51.226  21.376  1.00  0.00    -0.062 NA
ATOM      5  O   UNL     1      51.722  52.590  21.618  1.00  0.00    -0.332 OA
ENDROOT
BRANCH   1   6
ATOM      6  C   UNL     1      51.052  54.722  20.585  1.00  0.00    +0.174 C 
ATOM      7  C   UNL     1      51.520  56.824  22.052  1.00  0.00    -0.008 C 
ATOM      8  C   UNL     1      50.409  57.457  21.202  1.00  0.00    +0.004 C 
ATOM      9  C   UNL     1      51.604  55.290  21.907  1.00  0.00    +0.082 C 
ATOM     10  C   UNL     1      49.235  56.508  21.021  1.00  0.00    +0.007 C 
ATOM     11  C   UNL     1      49.626  55.230  20.273  1.00  0.00    +0.079 C 
ATOM     12  C   UNL     1      52.863  57.508  21.790  1.00  0.00    +0.008 C 
BRANCH   6  13
ATOM     13  N   UNL     1      51.960  55.198  19.466  1.00  0.00    -0.345 N 
ATOM     14  H   UNL     1      51.785  56.201  19.298  1.00  0.00    +0.345 HD
ATOM     15  H   UNL     1      51.709  54.736  18.581  1.00  0.00    +0.345 HD
ATOM     16  H   UNL     1      52.961  55.067  19.642  1.00  0.00    +0.345 HD
ENDBRANCH   6  13
ENDBRANCH   1   6
BRANCH   3  17
ATOM     17  C   UNL     1      50.491  49.895  19.595  1.00  0.00    +0.109 C 
BRANCH  17  18
ATOM     18  C   UNL     1      49.847  50.090  18.227  1.00  0.00    +0.168 C 
BRANCH  18  19
ATOM     19  O   UNL     1      48.433  49.954  18.373  1.00  0.00    -0.384 OA
ATOM     20  C   UNL     1      47.737  50.406  17.219  1.00  0.00    +0.194 C 
ENDBRANCH  18  19
ENDBRANCH  17  18
ENDBRANCH   3  17
TORSDOF 5
ENDMDL
