MODEL 1
REMARK VINA RESULT:    -7.695      0.000      0.000
REMARK INTER + INTRA:         -10.620
REMARK INTER:                 -10.169
REMARK INTRA:                  -0.451
REMARK UNBOUND:                -0.451
REMARK SMILES CCCO[C@H]1CCCN(c2ccc(/C(N)=N/O)cc2)C1
REMARK SMILES IDX 5 1 6 2 7 3 8 4 9 5 20 6 4 7 3 8 2 9 1 10 10 11 11 12 19 13
REMARK SMILES IDX 12 14 18 15 13 16 14 17 16 18 15 19 17 22
REMARK H PARENT 15 20 15 21 17 23
ROOT
ATOM      1  C   UNL     1      51.302  52.824  18.782  1.00  0.00    +0.137 C 
ATOM      2  C   UNL     1      52.363  51.841  18.284  1.00  0.00    +0.036 C 
ATOM      3  C   UNL     1      52.224  50.463  18.944  1.00  0.00    +0.024 C 
ATOM      4  C   UNL     1      50.802  50.161  19.418  1.00  0.00    +0.117 C 
ATOM      5  N   UNL     1      49.846  50.789  18.498  1.00  0.00    -0.369 N 
ATOM      6  C   UNL     1      49.877  52.268  18.515  1.00  0.00    +0.148 C 
ENDROOT
BRANCH   1   7
ATOM      7  O   UNL     1      51.544  53.028  20.186  1.00  0.00    -0.376 OA
BRANCH   7   8
ATOM      8  C   UNL     1      51.154  54.319  20.646  1.00  0.00    +0.160 C 
BRANCH   8   9
ATOM      9  C   UNL     1      51.619  54.496  22.089  1.00  0.00    +0.025 C 
ATOM     10  C   UNL     1      51.634  55.957  22.518  1.00  0.00    +0.006 C 
ENDBRANCH   8   9
ENDBRANCH   7   8
ENDBRANCH   1   7
BRANCH   5  11
ATOM     11  C   UNL     1      48.662  50.120  18.191  1.00  0.00    +0.037 A 
ATOM     12  C   UNL     1      48.275  48.927  18.821  1.00  0.00    +0.026 A 
ATOM     13  C   UNL     1      47.757  50.652  17.257  1.00  0.00    +0.026 A 
ATOM     14  C   UNL     1      47.070  48.279  18.512  1.00  0.00    +0.014 A 
ATOM     15  C   UNL     1      46.547  50.017  16.940  1.00  0.00    +0.014 A 
ATOM     16  C   UNL     1      46.198  48.823  17.570  1.00  0.00    +0.020 A 
BRANCH  16  17
ATOM     17  C   UNL     1      44.906  48.137  17.254  1.00  0.00    +0.170 C 
ATOM     18  N   UNL     1      44.579  47.955  16.005  1.00  0.00    -0.071 NA
ATOM     19  N   UNL     1      44.102  47.704  18.284  1.00  0.00    -0.380 N 
ATOM     20  H   UNL     1      43.367  47.114  17.897  1.00  0.00    +0.158 HD
ATOM     21  H   UNL     1      44.597  47.235  19.033  1.00  0.00    +0.158 HD
BRANCH  18  22
ATOM     22  O   UNL     1      43.355  47.272  15.900  1.00  0.00    -0.409 OA
ATOM     23  H   UNL     1      43.334  46.769  16.735  1.00  0.00    +0.330 HD
ENDBRANCH  18  22
ENDBRANCH  16  17
ENDBRANCH   5  11
TORSDOF 6
ENDMDL
MODEL 2
REMARK VINA RESULT:    -7.657      3.399      8.505
REMARK INTER + INTRA:         -10.570
REMARK INTER:                  -9.976
REMARK INTRA:                  -0.594
REMARK UNBOUND:                -0.451
REMARK SMILES CCCO[C@H]1CCCN(c2ccc(/C(N)=N/O)cc2)C1
REMARK SMILES IDX 5 1 6 2 7 3 8 4 9 5 20 6 4 7 3 8 2 9 1 10 10 11 11 12 19 13
REMARK SMILES IDX 12 14 18 15 13 16 14 17 16 18 15 19 17 22
REMARK H PARENT 15 20 15 21 17 23
ROOT
ATOM      1  C   UNL     1      49.488  50.485  17.844  1.00  0.00    +0.137 C 
ATOM      2  C   UNL     1      49.306  51.164  16.485  1.00  0.00    +0.036 C 
ATOM      3  C   UNL     1      48.479  52.452  16.592  1.00  0.00    +0.024 C 
ATOM      4  C   UNL     1      48.554  53.104  17.974  1.00  0.00    +0.117 C 
ATOM      5  N   UNL     1      49.887  52.872  18.542  1.00  0.00    -0.369 N 
ATOM      6  C   UNL     1      50.172  51.453  18.848  1.00  0.00    +0.148 C 
ENDROOT
BRANCH   1   7
ATOM      7  O   UNL     1      48.181  50.084  18.292  1.00  0.00    -0.376 OA
BRANCH   7   8
ATOM      8  C   UNL     1      48.017  48.671  18.369  1.00  0.00    +0.160 C 
BRANCH   8   9
ATOM      9  C   UNL     1      46.528  48.338  18.328  1.00  0.00    +0.025 C 
ATOM     10  C   UNL     1      45.734  49.337  17.499  1.00  0.00    +0.006 C 
ENDBRANCH   8   9
ENDBRANCH   7   8
ENDBRANCH   1   7
BRANCH   5  11
ATOM     11  C   UNL     1      50.488  53.881  19.293  1.00  0.00    +0.037 A 
ATOM     12  C   UNL     1      51.828  54.264  19.120  1.00  0.00    +0.026 A 
ATOM     13  C   UNL     1      49.749  54.612  20.239  1.00  0.00    +0.026 A 
ATOM     14  C   UNL     1      52.410  55.295  19.873  1.00  0.00    +0.014 A 
ATOM     15  C   UNL     1      50.317  55.647  20.996  1.00  0.00    +0.014 A 
ATOM     16  C   UNL     1      51.655  55.994  20.814  1.00  0.00    +0.020 A 
BRANCH  16  17
ATOM     17  C   UNL     1      52.275  57.103  21.605  1.00  0.00    +0.170 C 
ATOM     18  N   UNL     1      53.570  57.124  21.750  1.00  0.00    -0.071 NA
ATOM     19  N   UNL     1      51.468  58.078  22.147  1.00  0.00    -0.380 N 
ATOM     20  H   UNL     1      52.058  58.833  22.492  1.00  0.00    +0.158 HD
ATOM     21  H   UNL     1      50.753  58.425  21.520  1.00  0.00    +0.158 HD
BRANCH  18  22
ATOM     22  O   UNL     1      53.975  58.247  22.493  1.00  0.00    -0.409 OA
ATOM     23  H   UNL     1      54.932  58.087  22.591  1.00  0.00    +0.330 HD
ENDBRANCH  18  22
ENDBRANCH  16  17
ENDBRANCH   5  11
TORSDOF 6
ENDMDL
MODEL 3
REMARK VINA RESULT:    -7.531      4.621      6.209
REMARK INTER + INTRA:         -10.403
REMARK INTER:                  -9.851
REMARK INTRA:                  -0.552
REMARK UNBOUND:                -0.451
REMARK SMILES CCCO[C@H]1CCCN(c2ccc(/C(N)=N/O)cc2)C1
REMARK SMILES IDX 5 1 6 2 7 3 8 4 9 5 20 6 4 7 3 8 2 9 1 10 10 11 11 12 19 13
REMARK SMILES IDX 12 14 18 15 13 16 14 17 16 18 15 19 17 22
REMARK H PARENT 15 20 15 21 17 23
ROOT
ATOM      1  C   UNL     1      50.507  57.361  21.828  1.00  0.00    +0.137 C 
ATOM      2  C   UNL     1      49.047  57.364  21.375  1.00  0.00    +0.036 C 
ATOM      3  C   UNL     1      48.877  56.753  19.977  1.00  0.00    +0.024 C 
ATOM      4  C   UNL     1      49.978  55.754  19.617  1.00  0.00    +0.117 C 
ATOM      5  N   UNL     1      50.402  55.050  20.832  1.00  0.00    -0.369 N 
ATOM      6  C   UNL     1      51.075  55.915  21.827  1.00  0.00    +0.148 C 
ENDROOT
BRANCH   1   7
ATOM      7  O   UNL     1      51.229  58.220  20.926  1.00  0.00    -0.376 OA
BRANCH   7   8
ATOM      8  C   UNL     1      52.422  58.759  21.491  1.00  0.00    +0.160 C 
BRANCH   8   9
ATOM      9  C   UNL     1      53.619  58.289  20.669  1.00  0.00    +0.025 C 
ATOM     10  C   UNL     1      54.668  57.588  21.521  1.00  0.00    +0.006 C 
ENDBRANCH   8   9
ENDBRANCH   7   8
ENDBRANCH   1   7
BRANCH   5  11
ATOM     11  C   UNL     1      50.730  53.697  20.752  1.00  0.00    +0.037 A 
ATOM     12  C   UNL     1      51.458  53.029  21.749  1.00  0.00    +0.026 A 
ATOM     13  C   UNL     1      50.289  52.913  19.672  1.00  0.00    +0.026 A 
ATOM     14  C   UNL     1      51.762  51.662  21.660  1.00  0.00    +0.014 A 
ATOM     15  C   UNL     1      50.583  51.545  19.571  1.00  0.00    +0.014 A 
ATOM     16  C   UNL     1      51.322  50.912  20.569  1.00  0.00    +0.020 A 
BRANCH  16  17
ATOM     17  C   UNL     1      51.635  49.451  20.484  1.00  0.00    +0.170 C 
ATOM     18  N   UNL     1      50.824  48.600  21.046  1.00  0.00    -0.071 NA
ATOM     19  N   UNL     1      52.761  49.041  19.805  1.00  0.00    -0.380 N 
ATOM     20  H   UNL     1      52.724  48.029  19.696  1.00  0.00    +0.158 HD
ATOM     21  H   UNL     1      52.905  49.504  18.916  1.00  0.00    +0.158 HD
BRANCH  18  22
ATOM     22  O   UNL     1      51.259  47.279  20.840  1.00  0.00    -0.409 OA
ATOM     23  H   UNL     1      51.682  47.073  21.694  1.00  0.00    +0.330 HD
ENDBRANCH  18  22
ENDBRANCH  16  17
ENDBRANCH   5  11
TORSDOF 6
ENDMDL
MODEL 4
REMARK VINA RESULT:    -7.451      3.620      8.527
REMARK INTER + INTRA:         -10.298
REMARK INTER:                  -9.758
REMARK INTRA:                  -0.540
REMARK UNBOUND:                -0.451
REMARK SMILES CCCO[C@H]1CCCN(c2ccc(/C(N)=N/O)cc2)C1
REMARK SMILES IDX 5 1 6 2 7 3 8 4 9 5 20 6 4 7 3 8 2 9 1 10 10 11 11 12 19 13
REMARK SMILES IDX 12 14 18 15 13 16 14 17 16 18 15 19 17 22
REMARK H PARENT 15 20 15 21 17 23
ROOT
ATOM      1  C   UNL     1      50.093  49.921  19.364  1.00  0.00    +0.137 C 
ATOM      2  C   UNL     1      51.240  49.162  20.033  1.00  0.00    +0.036 C 
ATOM      3  C   UNL     1      52.611  49.729  19.641  1.00  0.00    +0.024 C 
ATOM      4  C   UNL     1      52.560  51.204  19.236  1.00  0.00    +0.117 C 
ATOM      5  N   UNL     1      51.527  51.883  20.027  1.00  0.00    -0.369 N 
ATOM      6  C   UNL     1      50.149  51.428  19.735  1.00  0.00    +0.148 C 
ENDROOT
BRANCH   1   7
ATOM      7  O   UNL     1      50.221  49.713  17.946  1.00  0.00    -0.376 OA
BRANCH   7   8
ATOM      8  C   UNL     1      48.975  49.479  17.293  1.00  0.00    +0.160 C 
BRANCH   8   9
ATOM      9  C   UNL     1      48.195  48.424  18.071  1.00  0.00    +0.025 C 
ATOM     10  C   UNL     1      46.727  48.794  18.236  1.00  0.00    +0.006 C 
ENDBRANCH   8   9
ENDBRANCH   7   8
ENDBRANCH   1   7
BRANCH   5  11
ATOM     11  C   UNL     1      51.752  53.189  20.457  1.00  0.00    +0.037 A 
ATOM     12  C   UNL     1      52.184  54.211  19.596  1.00  0.00    +0.026 A 
ATOM     13  C   UNL     1      51.499  53.562  21.788  1.00  0.00    +0.026 A 
ATOM     14  C   UNL     1      52.387  55.525  20.044  1.00  0.00    +0.014 A 
ATOM     15  C   UNL     1      51.694  54.873  22.249  1.00  0.00    +0.014 A 
ATOM     16  C   UNL     1      52.140  55.863  21.374  1.00  0.00    +0.020 A 
BRANCH  16  17
ATOM     17  C   UNL     1      52.344  57.268  21.845  1.00  0.00    +0.170 C 
ATOM     18  N   UNL     1      53.546  57.658  22.162  1.00  0.00    -0.071 NA
ATOM     19  N   UNL     1      51.263  58.118  21.920  1.00  0.00    -0.380 N 
ATOM     20  H   UNL     1      51.604  59.064  22.084  1.00  0.00    +0.158 HD
ATOM     21  H   UNL     1      50.646  58.082  21.117  1.00  0.00    +0.158 HD
BRANCH  18  22
ATOM     22  O   UNL     1      53.551  59.009  22.552  1.00  0.00    -0.409 OA
ATOM     23  H   UNL     1      54.350  59.343  22.103  1.00  0.00    +0.330 HD
ENDBRANCH  18  22
ENDBRANCH  16  17
ENDBRANCH   5  11
TORSDOF 6
ENDMDL
MODEL 5
REMARK VINA RESULT:    -7.114      3.485      5.172
REMARK INTER + INTRA:          -9.853
REMARK INTER:                  -9.327
REMARK INTRA:                  -0.525
REMARK UNBOUND:                -0.451
REMARK SMILES CCCO[C@H]1CCCN(c2ccc(/C(N)=N/O)cc2)C1
REMARK SMILES IDX 5 1 6 2 7 3 8 4 9 5 20 6 4 7 3 8 2 9 1 10 10 11 11 12 19 13
REMARK SMILES IDX 12 14 18 15 13 16 14 17 16 18 15 19 17 22
REMARK H PARENT 15 20 15 21 17 23
ROOT
ATOM      1  C   UNL     1      49.532  56.834  21.123  1.00  0.00    +0.137 C 
ATOM      2  C   UNL     1      48.160  57.318  20.653  1.00  0.00    +0.036 C 
ATOM      3  C   UNL     1      48.059  57.366  19.123  1.00  0.00    +0.024 C 
ATOM      4  C   UNL     1      49.009  56.390  18.425  1.00  0.00    +0.117 C 
ATOM      5  N   UNL     1      49.155  55.188  19.254  1.00  0.00    -0.369 N 
ATOM      6  C   UNL     1      49.840  55.426  20.544  1.00  0.00    +0.148 C 
ENDROOT
BRANCH   1   7
ATOM      7  O   UNL     1      50.494  57.813  20.690  1.00  0.00    -0.376 OA
BRANCH   7   8
ATOM      8  C   UNL     1      51.820  57.299  20.592  1.00  0.00    +0.160 C 
BRANCH   8   9
ATOM      9  C   UNL     1      52.742  58.124  21.485  1.00  0.00    +0.025 C 
ATOM     10  C   UNL     1      54.213  57.905  21.159  1.00  0.00    +0.006 C 
ENDBRANCH   8   9
ENDBRANCH   7   8
ENDBRANCH   1   7
BRANCH   5  11
ATOM     11  C   UNL     1      49.254  53.945  18.632  1.00  0.00    +0.037 A 
ATOM     12  C   UNL     1      48.391  53.537  17.603  1.00  0.00    +0.026 A 
ATOM     13  C   UNL     1      50.279  53.046  18.978  1.00  0.00    +0.026 A 
ATOM     14  C   UNL     1      48.518  52.288  16.975  1.00  0.00    +0.014 A 
ATOM     15  C   UNL     1      50.420  51.796  18.357  1.00  0.00    +0.014 A 
ATOM     16  C   UNL     1      49.537  51.412  17.349  1.00  0.00    +0.020 A 
BRANCH  16  17
ATOM     17  C   UNL     1      49.679  50.087  16.668  1.00  0.00    +0.170 C 
ATOM     18  N   UNL     1      50.118  50.053  15.441  1.00  0.00    -0.071 NA
ATOM     19  N   UNL     1      49.356  48.938  17.354  1.00  0.00    -0.380 N 
ATOM     20  H   UNL     1      49.675  48.136  16.813  1.00  0.00    +0.158 HD
ATOM     21  H   UNL     1      49.706  48.905  18.304  1.00  0.00    +0.158 HD
BRANCH  18  22
ATOM     22  O   UNL     1      50.214  48.730  14.976  1.00  0.00    -0.409 OA
ATOM     23  H   UNL     1      49.625  48.749  14.199  1.00  0.00    +0.330 HD
ENDBRANCH  18  22
ENDBRANCH  16  17
ENDBRANCH   5  11
TORSDOF 6
ENDMDL
