MODEL 1
REMARK VINA RESULT:    -8.050      0.000      0.000
REMARK INTER + INTRA:         -10.864
REMARK INTER:                 -10.403
REMARK INTRA:                  -0.461
REMARK UNBOUND:                -0.461
REMARK SMILES NC(=S)c1ccc(S(=O)(=O)NC[C@H]2CCCCO2)cc1
REMARK SMILES IDX 8 1 9 2 10 3 7 4 5 5 6 6 4 7 20 8 19 9 2 10 3 11 1 12 11 15
REMARK SMILES IDX 12 17 13 18 14 19 18 20 15 21 17 22 16 23
REMARK H PARENT 1 13 1 14 11 16
ROOT
ATOM      1  S   UNL     1      52.441  50.580  19.163  1.00  0.00    +0.240 S 
ATOM      2  O   UNL     1      52.838  50.953  17.823  1.00  0.00    -0.207 OA
ATOM      3  O   UNL     1      53.251  49.715  19.989  1.00  0.00    -0.207 OA
ENDROOT
BRANCH   1   4
ATOM      4  C   UNL     1      52.109  52.074  20.066  1.00  0.00    +0.082 A 
ATOM      5  C   UNL     1      52.071  54.487  20.156  1.00  0.00    +0.012 A 
ATOM      6  C   UNL     1      52.314  53.309  19.444  1.00  0.00    +0.022 A 
ATOM      7  C   UNL     1      51.633  54.431  21.489  1.00  0.00    +0.009 A 
ATOM      8  C   UNL     1      51.449  53.185  22.106  1.00  0.00    +0.012 A 
ATOM      9  C   UNL     1      51.690  52.005  21.399  1.00  0.00    +0.022 A 
BRANCH   7  10
ATOM     10  C   UNL     1      51.376  55.694  22.228  1.00  0.00    +0.103 C 
ATOM     11  S   UNL     1      50.547  57.011  21.625  1.00  0.00    -0.060 S 
ATOM     12  N   UNL     1      51.875  55.757  23.505  1.00  0.00    -0.389 N 
ATOM     13  H   UNL     1      52.484  55.051  23.898  1.00  0.00    +0.157 HD
ATOM     14  H   UNL     1      51.768  56.622  24.021  1.00  0.00    +0.157 HD
ENDBRANCH   7  10
ENDBRANCH   1   4
BRANCH   1  15
ATOM     15  N   UNL     1      50.924  49.893  19.029  1.00  0.00    -0.209 NA
ATOM     16  H   UNL     1      50.903  48.876  19.010  1.00  0.00    +0.141 HD
BRANCH  15  17
ATOM     17  C   UNL     1      49.811  50.655  18.457  1.00  0.00    +0.130 C 
BRANCH  17  18
ATOM     18  C   UNL     1      48.974  49.777  17.509  1.00  0.00    +0.133 C 
ATOM     19  C   UNL     1      48.539  48.456  18.171  1.00  0.00    +0.033 C 
ATOM     20  O   UNL     1      47.858  50.572  17.074  1.00  0.00    -0.377 OA
ATOM     21  C   UNL     1      47.155  48.578  18.793  1.00  0.00    +0.005 C 
ATOM     22  C   UNL     1      46.770  49.788  16.598  1.00  0.00    +0.160 C 
ATOM     23  C   UNL     1      46.129  49.030  17.756  1.00  0.00    +0.029 C 
ENDBRANCH  17  18
ENDBRANCH  15  17
ENDBRANCH   1  15
TORSDOF 5
ENDMDL
MODEL 2
REMARK VINA RESULT:    -7.672      1.236      1.715
REMARK INTER + INTRA:         -10.376
REMARK INTER:                  -9.902
REMARK INTRA:                  -0.474
REMARK UNBOUND:                -0.461
REMARK SMILES NC(=S)c1ccc(S(=O)(=O)NC[C@H]2CCCCO2)cc1
REMARK SMILES IDX 8 1 9 2 10 3 7 4 5 5 6 6 4 7 20 8 19 9 2 10 3 11 1 12 11 15
REMARK SMILES IDX 12 17 13 18 14 19 18 20 15 21 17 22 16 23
REMARK H PARENT 1 13 1 14 11 16
ROOT
ATOM      1  S   UNL     1      52.201  51.500  19.721  1.00  0.00    +0.240 S 
ATOM      2  O   UNL     1      52.735  51.539  18.378  1.00  0.00    -0.207 OA
ATOM      3  O   UNL     1      52.789  50.682  20.756  1.00  0.00    -0.207 OA
ENDROOT
BRANCH   1   4
ATOM      4  C   UNL     1      52.100  53.173  20.314  1.00  0.00    +0.082 A 
ATOM      5  C   UNL     1      51.561  54.725  22.084  1.00  0.00    +0.012 A 
ATOM      6  C   UNL     1      51.658  53.410  21.619  1.00  0.00    +0.022 A 
ATOM      7  C   UNL     1      51.894  55.799  21.244  1.00  0.00    +0.009 A 
ATOM      8  C   UNL     1      52.319  55.547  19.931  1.00  0.00    +0.012 A 
ATOM      9  C   UNL     1      52.418  54.235  19.462  1.00  0.00    +0.022 A 
BRANCH   7  10
ATOM     10  C   UNL     1      51.788  57.189  21.758  1.00  0.00    +0.103 C 
ATOM     11  S   UNL     1      52.987  58.346  21.662  1.00  0.00    -0.060 S 
ATOM     12  N   UNL     1      50.599  57.519  22.360  1.00  0.00    -0.389 N 
ATOM     13  H   UNL     1      49.872  56.845  22.560  1.00  0.00    +0.157 HD
ATOM     14  H   UNL     1      50.507  58.440  22.772  1.00  0.00    +0.157 HD
ENDBRANCH   7  10
ENDBRANCH   1   4
BRANCH   1  15
ATOM     15  N   UNL     1      50.593  51.071  19.575  1.00  0.00    -0.209 NA
ATOM     16  H   UNL     1      50.348  50.157  19.948  1.00  0.00    +0.141 HD
BRANCH  15  17
ATOM     17  C   UNL     1      49.748  51.689  18.550  1.00  0.00    +0.130 C 
BRANCH  17  18
ATOM     18  C   UNL     1      49.208  50.631  17.572  1.00  0.00    +0.133 C 
ATOM     19  C   UNL     1      49.184  49.222  18.192  1.00  0.00    +0.033 C 
ATOM     20  O   UNL     1      47.906  51.074  17.151  1.00  0.00    -0.377 OA
ATOM     21  C   UNL     1      47.827  48.911  18.807  1.00  0.00    +0.005 C 
ATOM     22  C   UNL     1      47.099  50.017  16.644  1.00  0.00    +0.160 C 
ATOM     23  C   UNL     1      46.711  49.070  17.776  1.00  0.00    +0.029 C 
ENDBRANCH  17  18
ENDBRANCH  15  17
ENDBRANCH   1  15
TORSDOF 5
ENDMDL
MODEL 3
REMARK VINA RESULT:    -7.387      1.755      2.282
REMARK INTER + INTRA:         -10.007
REMARK INTER:                  -9.303
REMARK INTRA:                  -0.704
REMARK UNBOUND:                -0.461
REMARK SMILES NC(=S)c1ccc(S(=O)(=O)NC[C@H]2CCCCO2)cc1
REMARK SMILES IDX 8 1 9 2 10 3 7 4 5 5 6 6 4 7 20 8 19 9 2 10 3 11 1 12 11 15
REMARK SMILES IDX 12 17 13 18 14 19 18 20 15 21 17 22 16 23
REMARK H PARENT 1 13 1 14 11 16
ROOT
ATOM      1  S   UNL     1      51.330  50.107  20.372  1.00  0.00    +0.240 S 
ATOM      2  O   UNL     1      52.742  49.860  20.180  1.00  0.00    -0.207 OA
ATOM      3  O   UNL     1      50.556  49.398  21.364  1.00  0.00    -0.207 OA
ENDROOT
BRANCH   1   4
ATOM      4  C   UNL     1      51.115  51.852  20.632  1.00  0.00    +0.082 A 
ATOM      5  C   UNL     1      51.506  53.820  21.976  1.00  0.00    +0.012 A 
ATOM      6  C   UNL     1      51.686  52.451  21.758  1.00  0.00    +0.022 A 
ATOM      7  C   UNL     1      50.749  54.586  21.076  1.00  0.00    +0.009 A 
ATOM      8  C   UNL     1      50.166  53.968  19.959  1.00  0.00    +0.012 A 
ATOM      9  C   UNL     1      50.344  52.600  19.737  1.00  0.00    +0.022 A 
BRANCH   7  10
ATOM     10  C   UNL     1      50.571  56.040  21.322  1.00  0.00    +0.103 C 
ATOM     11  S   UNL     1      51.774  57.088  21.812  1.00  0.00    -0.060 S 
ATOM     12  N   UNL     1      49.306  56.534  21.128  1.00  0.00    -0.389 N 
ATOM     13  H   UNL     1      48.502  55.946  20.946  1.00  0.00    +0.157 HD
ATOM     14  H   UNL     1      49.132  57.510  21.339  1.00  0.00    +0.157 HD
ENDBRANCH   7  10
ENDBRANCH   1   4
BRANCH   1  15
ATOM     15  N   UNL     1      50.606  49.870  18.885  1.00  0.00    -0.209 NA
ATOM     16  H   UNL     1      50.740  50.618  18.209  1.00  0.00    +0.141 HD
BRANCH  15  17
ATOM     17  C   UNL     1      49.465  48.961  18.750  1.00  0.00    +0.130 C 
BRANCH  17  18
ATOM     18  C   UNL     1      48.746  49.179  17.407  1.00  0.00    +0.133 C 
ATOM     19  C   UNL     1      47.440  49.979  17.569  1.00  0.00    +0.033 C 
ATOM     20  O   UNL     1      49.684  49.822  16.527  1.00  0.00    -0.377 OA
ATOM     21  C   UNL     1      47.670  51.466  17.343  1.00  0.00    +0.005 C 
ATOM     22  C   UNL     1      49.054  50.505  15.448  1.00  0.00    +0.160 C 
ATOM     23  C   UNL     1      48.297  51.720  15.973  1.00  0.00    +0.029 C 
ENDBRANCH  17  18
ENDBRANCH  15  17
ENDBRANCH   1  15
TORSDOF 5
ENDMDL
