MODEL 1
REMARK VINA RESULT:    -6.019      0.000      0.000
REMARK INTER + INTRA:          -7.925
REMARK INTER:                  -7.427
REMARK INTRA:                  -0.498
REMARK UNBOUND:                -0.498
REMARK SMILES C[C@H]1CCC[NH+](CCNC(=O)NC2CC2)C1
REMARK SMILES IDX 7 1 6 2 2 3 3 4 16 5 4 6 5 7 1 8 8 10 9 11 10 12 11 13 12 14
REMARK SMILES IDX 13 17 14 18 15 19
REMARK H PARENT 6 9 9 15 12 16
ROOT
ATOM      1  C   UNL     1      51.477  54.080  21.614  1.00  0.00    +0.283 C 
ENDROOT
BRANCH   1   2
ATOM      2  N   UNL     1      51.330  55.148  20.544  1.00  0.00    -0.333 N 
ATOM      3  C   UNL     1      49.813  57.154  20.792  1.00  0.00    +0.041 C 
ATOM      4  C   UNL     1      50.659  57.444  22.033  1.00  0.00    +0.015 C 
ATOM      5  C   UNL     1      49.927  55.682  20.368  1.00  0.00    +0.265 C 
ATOM      6  C   UNL     1      52.138  57.126  21.802  1.00  0.00    +0.062 C 
ATOM      7  C   UNL     1      52.382  56.215  20.606  1.00  0.00    +0.262 C 
ATOM      8  C   UNL     1      48.350  57.527  21.024  1.00  0.00    +0.013 C 
ATOM      9  H   UNL     1      51.534  54.647  19.650  1.00  0.00    +0.348 HD
ENDBRANCH   1   2
BRANCH   1  10
ATOM     10  C   UNL     1      51.789  52.686  21.020  1.00  0.00    +0.179 C 
BRANCH  10  11
ATOM     11  N   UNL     1      50.715  52.097  20.227  1.00  0.00    -0.333 N 
ATOM     12  C   UNL     1      50.573  52.351  18.889  1.00  0.00    +0.315 C 
ATOM     13  O   UNL     1      51.429  52.953  18.248  1.00  0.00    -0.249 OA
ATOM     14  N   UNL     1      49.414  51.844  18.373  1.00  0.00    -0.335 N 
ATOM     15  H   UNL     1      49.831  51.976  20.710  1.00  0.00    +0.165 HD
ATOM     16  H   UNL     1      48.910  51.155  18.917  1.00  0.00    +0.165 HD
BRANCH  14  17
ATOM     17  C   UNL     1      49.088  51.950  16.984  1.00  0.00    +0.084 C 
ATOM     18  C   UNL     1      47.884  51.244  16.424  1.00  0.00    +0.027 C 
ATOM     19  C   UNL     1      47.888  52.741  16.539  1.00  0.00    +0.027 C 
ENDBRANCH  14  17
ENDBRANCH  10  11
ENDBRANCH   1  10
TORSDOF 4
ENDMDL
MODEL 2
REMARK VINA RESULT:    -5.982      1.901      2.704
REMARK INTER + INTRA:          -7.879
REMARK INTER:                  -7.452
REMARK INTRA:                  -0.427
REMARK UNBOUND:                -0.498
REMARK SMILES C[C@H]1CCC[NH+](CCNC(=O)NC2CC2)C1
REMARK SMILES IDX 7 1 6 2 2 3 3 4 16 5 4 6 5 7 1 8 8 10 9 11 10 12 11 13 12 14
REMARK SMILES IDX 13 17 14 18 15 19
REMARK H PARENT 6 9 9 15 12 16
ROOT
ATOM      1  C   UNL     1      52.342  53.733  19.363  1.00  0.00    +0.283 C 
ENDROOT
BRANCH   1   2
ATOM      2  N   UNL     1      51.799  53.952  20.765  1.00  0.00    -0.333 N 
ATOM      3  C   UNL     1      50.554  56.038  21.455  1.00  0.00    +0.041 C 
ATOM      4  C   UNL     1      49.594  55.649  20.329  1.00  0.00    +0.015 C 
ATOM      5  C   UNL     1      51.924  55.367  21.280  1.00  0.00    +0.265 C 
ATOM      6  C   UNL     1      49.379  54.136  20.260  1.00  0.00    +0.062 C 
ATOM      7  C   UNL     1      50.450  53.339  20.992  1.00  0.00    +0.262 C 
ATOM      8  C   UNL     1      50.714  57.555  21.541  1.00  0.00    +0.013 C 
ATOM      9  H   UNL     1      52.435  53.393  21.377  1.00  0.00    +0.348 HD
ENDBRANCH   1   2
BRANCH   1  10
ATOM     10  C   UNL     1      52.427  52.235  18.988  1.00  0.00    +0.179 C 
BRANCH  10  11
ATOM     11  N   UNL     1      51.801  51.880  17.718  1.00  0.00    -0.333 N 
ATOM     12  C   UNL     1      50.666  51.115  17.653  1.00  0.00    +0.315 C 
ATOM     13  O   UNL     1      50.022  50.823  18.657  1.00  0.00    -0.249 OA
ATOM     14  N   UNL     1      50.341  50.756  16.376  1.00  0.00    -0.335 N 
ATOM     15  H   UNL     1      52.439  51.720  16.945  1.00  0.00    +0.165 HD
ATOM     16  H   UNL     1      50.782  51.254  15.613  1.00  0.00    +0.165 HD
BRANCH  14  17
ATOM     17  C   UNL     1      49.166  49.999  16.074  1.00  0.00    +0.084 C 
ATOM     18  C   UNL     1      48.665  49.893  14.660  1.00  0.00    +0.027 C 
ATOM     19  C   UNL     1      49.266  48.694  15.333  1.00  0.00    +0.027 C 
ENDBRANCH  14  17
ENDBRANCH  10  11
ENDBRANCH   1  10
TORSDOF 4
ENDMDL
MODEL 3
REMARK VINA RESULT:    -5.922      2.132      2.853
REMARK INTER + INTRA:          -7.805
REMARK INTER:                  -7.399
REMARK INTRA:                  -0.406
REMARK UNBOUND:                -0.498
REMARK SMILES C[C@H]1CCC[NH+](CCNC(=O)NC2CC2)C1
REMARK SMILES IDX 7 1 6 2 2 3 3 4 16 5 4 6 5 7 1 8 8 10 9 11 10 12 11 13 12 14
REMARK SMILES IDX 13 17 14 18 15 19
REMARK H PARENT 6 9 9 15 12 16
ROOT
ATOM      1  C   UNL     1      51.937  54.075  18.999  1.00  0.00    +0.283 C 
ENDROOT
BRANCH   1   2
ATOM      2  N   UNL     1      51.413  54.148  20.423  1.00  0.00    -0.333 N 
ATOM      3  C   UNL     1      50.503  56.268  21.454  1.00  0.00    +0.041 C 
ATOM      4  C   UNL     1      49.512  56.224  20.288  1.00  0.00    +0.015 C 
ATOM      5  C   UNL     1      51.752  55.423  21.160  1.00  0.00    +0.265 C 
ATOM      6  C   UNL     1      49.061  54.795  19.978  1.00  0.00    +0.062 C 
ATOM      7  C   UNL     1      49.980  53.730  20.561  1.00  0.00    +0.262 C 
ATOM      8  C   UNL     1      50.901  57.706  21.783  1.00  0.00    +0.013 C 
ATOM      9  H   UNL     1      51.941  53.404  20.931  1.00  0.00    +0.348 HD
ENDBRANCH   1   2
BRANCH   1  10
ATOM     10  C   UNL     1      52.468  52.668  18.636  1.00  0.00    +0.179 C 
BRANCH  10  11
ATOM     11  N   UNL     1      51.494  51.784  18.005  1.00  0.00    -0.333 N 
ATOM     12  C   UNL     1      50.926  50.730  18.672  1.00  0.00    +0.315 C 
ATOM     13  O   UNL     1      51.079  50.568  19.879  1.00  0.00    -0.249 OA
ATOM     14  N   UNL     1      50.175  49.931  17.857  1.00  0.00    -0.335 N 
ATOM     15  H   UNL     1      51.642  51.603  17.018  1.00  0.00    +0.165 HD
ATOM     16  H   UNL     1      49.907  50.290  16.950  1.00  0.00    +0.165 HD
BRANCH  14  17
ATOM     17  C   UNL     1      49.451  48.802  18.356  1.00  0.00    +0.084 C 
ATOM     18  C   UNL     1      47.957  48.858  18.510  1.00  0.00    +0.027 C 
ATOM     19  C   UNL     1      48.568  47.996  17.443  1.00  0.00    +0.027 C 
ENDBRANCH  14  17
ENDBRANCH  10  11
ENDBRANCH   1  10
TORSDOF 4
ENDMDL
MODEL 4
REMARK VINA RESULT:    -5.874      1.735      2.007
REMARK INTER + INTRA:          -7.746
REMARK INTER:                  -7.419
REMARK INTRA:                  -0.327
REMARK UNBOUND:                -0.498
REMARK SMILES C[C@H]1CCC[NH+](CCNC(=O)NC2CC2)C1
REMARK SMILES IDX 7 1 6 2 2 3 3 4 16 5 4 6 5 7 1 8 8 10 9 11 10 12 11 13 12 14
REMARK SMILES IDX 13 17 14 18 15 19
REMARK H PARENT 6 9 9 15 12 16
ROOT
ATOM      1  C   UNL     1      51.651  54.014  19.586  1.00  0.00    +0.283 C 
ENDROOT
BRANCH   1   2
ATOM      2  N   UNL     1      51.579  55.512  19.345  1.00  0.00    -0.333 N 
ATOM      3  C   UNL     1      49.957  57.029  20.550  1.00  0.00    +0.041 C 
ATOM      4  C   UNL     1      50.644  56.502  21.812  1.00  0.00    +0.015 C 
ATOM      5  C   UNL     1      50.183  56.090  19.355  1.00  0.00    +0.265 C 
ATOM      6  C   UNL     1      52.151  56.336  21.612  1.00  0.00    +0.062 C 
ATOM      7  C   UNL     1      52.569  56.301  20.148  1.00  0.00    +0.262 C 
ATOM      8  C   UNL     1      48.462  57.239  20.784  1.00  0.00    +0.013 C 
ATOM      9  H   UNL     1      51.904  55.630  18.360  1.00  0.00    +0.348 HD
ENDBRANCH   1   2
BRANCH   1  10
ATOM     10  C   UNL     1      50.268  53.329  19.474  1.00  0.00    +0.179 C 
BRANCH  10  11
ATOM     11  N   UNL     1      49.928  52.838  18.143  1.00  0.00    -0.333 N 
ATOM     12  C   UNL     1      49.973  51.506  17.823  1.00  0.00    +0.315 C 
ATOM     13  O   UNL     1      50.142  50.640  18.676  1.00  0.00    -0.249 OA
ATOM     14  N   UNL     1      49.785  51.275  16.490  1.00  0.00    -0.335 N 
ATOM     15  H   UNL     1      50.187  53.446  17.373  1.00  0.00    +0.165 HD
ATOM     16  H   UNL     1      49.404  52.022  15.924  1.00  0.00    +0.165 HD
BRANCH  14  17
ATOM     17  C   UNL     1      49.743  49.952  15.946  1.00  0.00    +0.084 C 
ATOM     18  C   UNL     1      48.885  49.643  14.751  1.00  0.00    +0.027 C 
ATOM     19  C   UNL     1      50.380  49.652  14.616  1.00  0.00    +0.027 C 
ENDBRANCH  14  17
ENDBRANCH  10  11
ENDBRANCH   1  10
TORSDOF 4
ENDMDL
MODEL 5
REMARK VINA RESULT:    -5.873      2.634      7.612
REMARK INTER + INTRA:          -7.744
REMARK INTER:                  -7.294
REMARK INTRA:                  -0.450
REMARK UNBOUND:                -0.498
REMARK SMILES C[C@H]1CCC[NH+](CCNC(=O)NC2CC2)C1
REMARK SMILES IDX 7 1 6 2 2 3 3 4 16 5 4 6 5 7 1 8 8 10 9 11 10 12 11 13 12 14
REMARK SMILES IDX 13 17 14 18 15 19
REMARK H PARENT 6 9 9 15 12 16
ROOT
ATOM      1  C   UNL     1      47.415  50.983  16.982  1.00  0.00    +0.283 C 
ENDROOT
BRANCH   1   2
ATOM      2  N   UNL     1      47.809  49.532  17.200  1.00  0.00    -0.333 N 
ATOM      3  C   UNL     1      46.187  47.763  17.990  1.00  0.00    +0.041 C 
ATOM      4  C   UNL     1      45.399  48.149  16.736  1.00  0.00    +0.015 C 
ATOM      5  C   UNL     1      47.167  48.873  18.399  1.00  0.00    +0.265 C 
ATOM      6  C   UNL     1      46.321  48.433  15.549  1.00  0.00    +0.062 C 
ATOM      7  C   UNL     1      47.765  48.700  15.954  1.00  0.00    +0.262 C 
ATOM      8  C   UNL     1      45.249  47.431  19.149  1.00  0.00    +0.013 C 
ATOM      9  H   UNL     1      48.826  49.574  17.438  1.00  0.00    +0.348 HD
ENDBRANCH   1   2
BRANCH   1  10
ATOM     10  C   UNL     1      48.604  51.855  16.512  1.00  0.00    +0.179 C 
BRANCH  10  11
ATOM     11  N   UNL     1      49.243  52.644  17.560  1.00  0.00    -0.333 N 
ATOM     12  C   UNL     1      50.104  52.088  18.469  1.00  0.00    +0.315 C 
ATOM     13  O   UNL     1      50.512  50.936  18.356  1.00  0.00    -0.249 OA
ATOM     14  N   UNL     1      50.457  52.956  19.463  1.00  0.00    -0.335 N 
ATOM     15  H   UNL     1      48.682  53.397  17.944  1.00  0.00    +0.165 HD
ATOM     16  H   UNL     1      50.275  53.942  19.324  1.00  0.00    +0.165 HD
BRANCH  14  17
ATOM     17  C   UNL     1      51.387  52.600  20.490  1.00  0.00    +0.084 C 
ATOM     18  C   UNL     1      51.676  53.544  21.624  1.00  0.00    +0.027 C 
ATOM     19  C   UNL     1      50.907  52.280  21.879  1.00  0.00    +0.027 C 
ENDBRANCH  14  17
ENDBRANCH  10  11
ENDBRANCH   1  10
TORSDOF 4
ENDMDL
