MODEL 1
REMARK VINA RESULT:    -7.393      0.000      0.000
REMARK INTER + INTRA:         -10.183
REMARK INTER:                  -9.553
REMARK INTRA:                  -0.630
REMARK UNBOUND:                -0.630
REMARK SMILES C[NH+]1CCN(C(C)(C)CNC(=O)Nc2nnc(C3CC3)s2)CC1
REMARK SMILES IDX 9 1 6 2 7 3 8 4 5 5 4 6 22 7 3 8 23 9 2 10 1 11 10 13 11 14
REMARK SMILES IDX 12 15 13 16 14 19 15 20 21 21 16 22 17 23 18 24 19 25 20 26
REMARK H PARENT 2 12 10 17 13 18
ROOT
ATOM      1  C   UNL     1      48.444  50.836  15.747  1.00  0.00    +0.139 C 
ENDROOT
BRANCH   1   2
ATOM      2  C   UNL     1      48.151  49.308  15.533  1.00  0.00    +0.033 C 
ATOM      3  C   UNL     1      49.490  48.535  15.481  1.00  0.00    +0.030 C 
ATOM      4  C   UNL     1      47.442  49.144  14.163  1.00  0.00    +0.030 C 
BRANCH   2   5
ATOM      5  N   UNL     1      47.258  48.833  16.647  1.00  0.00    -0.285 NA
ATOM      6  C   UNL     1      45.999  49.596  16.814  1.00  0.00    +0.146 C 
ATOM      7  C   UNL     1      47.919  48.657  17.965  1.00  0.00    +0.146 C 
ATOM      8  C   UNL     1      44.967  48.840  17.693  1.00  0.00    +0.277 C 
ATOM      9  C   UNL     1      46.941  48.249  19.100  1.00  0.00    +0.277 C 
ATOM     10  N   UNL     1      45.658  47.738  18.479  1.00  0.00    -0.335 N 
ATOM     11  C   UNL     1      44.757  47.033  19.434  1.00  0.00    +0.332 C 
ATOM     12  H   UNL     1      45.964  47.069  17.756  1.00  0.00    +0.347 HD
ENDBRANCH   2   5
ENDBRANCH   1   2
BRANCH   1  13
ATOM     13  N   UNL     1      49.746  51.164  16.308  1.00  0.00    -0.336 N 
ATOM     14  C   UNL     1      49.768  51.922  17.472  1.00  0.00    +0.321 C 
ATOM     15  O   UNL     1      48.739  52.343  17.980  1.00  0.00    -0.248 OA
ATOM     16  N   UNL     1      51.049  52.111  17.914  1.00  0.00    -0.282 N 
ATOM     17  H   UNL     1      50.444  50.433  16.300  1.00  0.00    +0.165 HD
ATOM     18  H   UNL     1      51.825  51.956  17.292  1.00  0.00    +0.174 HD
BRANCH  16  19
ATOM     19  C   UNL     1      51.311  52.731  19.104  1.00  0.00    +0.213 A 
ATOM     20  N   UNL     1      51.545  52.223  20.288  1.00  0.00    -0.120 NA
ATOM     21  S   UNL     1      51.376  54.437  19.022  1.00  0.00    -0.079 S 
ATOM     22  N   UNL     1      51.811  53.209  21.222  1.00  0.00    -0.141 NA
ATOM     23  C   UNL     1      51.764  54.411  20.690  1.00  0.00    +0.122 A 
BRANCH  23  24
ATOM     24  C   UNL     1      52.029  55.679  21.562  1.00  0.00    +0.051 C 
ATOM     25  C   UNL     1      50.831  56.474  22.033  1.00  0.00    +0.011 C 
ATOM     26  C   UNL     1      51.686  55.741  23.028  1.00  0.00    +0.011 C 
ENDBRANCH  23  24
ENDBRANCH  16  19
ENDBRANCH   1  13
TORSDOF 5
ENDMDL
MODEL 2
REMARK VINA RESULT:    -7.314      1.457      2.011
REMARK INTER + INTRA:         -10.082
REMARK INTER:                  -9.625
REMARK INTRA:                  -0.457
REMARK UNBOUND:                -0.630
REMARK SMILES C[NH+]1CCN(C(C)(C)CNC(=O)Nc2nnc(C3CC3)s2)CC1
REMARK SMILES IDX 9 1 6 2 7 3 8 4 5 5 4 6 22 7 3 8 23 9 2 10 1 11 10 13 11 14
REMARK SMILES IDX 12 15 13 16 14 19 15 20 21 21 16 22 17 23 18 24 19 25 20 26
REMARK H PARENT 2 12 10 17 13 18
ROOT
ATOM      1  C   UNL     1      50.104  50.354  16.910  1.00  0.00    +0.139 C 
ENDROOT
BRANCH   1   2
ATOM      2  C   UNL     1      48.747  50.446  16.124  1.00  0.00    +0.033 C 
ATOM      3  C   UNL     1      48.979  50.023  14.655  1.00  0.00    +0.030 C 
ATOM      4  C   UNL     1      48.287  51.927  16.136  1.00  0.00    +0.030 C 
BRANCH   2   5
ATOM      5  N   UNL     1      47.734  49.576  16.817  1.00  0.00    -0.285 NA
ATOM      6  C   UNL     1      47.618  48.198  16.286  1.00  0.00    +0.146 C 
ATOM      7  C   UNL     1      46.382  50.170  16.973  1.00  0.00    +0.146 C 
ATOM      8  C   UNL     1      46.866  47.253  17.262  1.00  0.00    +0.277 C 
ATOM      9  C   UNL     1      45.350  49.203  17.616  1.00  0.00    +0.277 C 
ATOM     10  N   UNL     1      46.095  48.069  18.287  1.00  0.00    -0.335 N 
ATOM     11  C   UNL     1      45.254  47.241  19.196  1.00  0.00    +0.332 C 
ATOM     12  H   UNL     1      46.831  48.531  18.843  1.00  0.00    +0.347 HD
ENDBRANCH   2   5
ENDBRANCH   1   2
BRANCH   1  13
ATOM     13  N   UNL     1      50.021  50.545  18.349  1.00  0.00    -0.336 N 
ATOM     14  C   UNL     1      50.659  51.657  18.884  1.00  0.00    +0.321 C 
ATOM     15  O   UNL     1      51.309  52.420  18.185  1.00  0.00    -0.248 OA
ATOM     16  N   UNL     1      50.458  51.739  20.235  1.00  0.00    -0.282 N 
ATOM     17  H   UNL     1      49.130  50.354  18.785  1.00  0.00    +0.165 HD
ATOM     18  H   UNL     1      50.141  50.933  20.748  1.00  0.00    +0.174 HD
BRANCH  16  19
ATOM     19  C   UNL     1      50.895  52.813  20.960  1.00  0.00    +0.213 A 
ATOM     20  N   UNL     1      51.860  52.903  21.841  1.00  0.00    -0.120 NA
ATOM     21  S   UNL     1      50.075  54.277  20.634  1.00  0.00    -0.079 S 
ATOM     22  N   UNL     1      52.004  54.197  22.309  1.00  0.00    -0.141 NA
ATOM     23  C   UNL     1      51.140  55.017  21.752  1.00  0.00    +0.122 A 
BRANCH  23  24
ATOM     24  C   UNL     1      51.117  56.531  22.134  1.00  0.00    +0.051 C 
ATOM     25  C   UNL     1      51.599  57.526  21.101  1.00  0.00    +0.011 C 
ATOM     26  C   UNL     1      50.154  57.509  21.514  1.00  0.00    +0.011 C 
ENDBRANCH  23  24
ENDBRANCH  16  19
ENDBRANCH   1  13
TORSDOF 5
ENDMDL
MODEL 3
REMARK VINA RESULT:    -7.155      2.181      8.505
REMARK INTER + INTRA:          -9.877
REMARK INTER:                  -9.649
REMARK INTRA:                  -0.228
REMARK UNBOUND:                -0.630
REMARK SMILES C[NH+]1CCN(C(C)(C)CNC(=O)Nc2nnc(C3CC3)s2)CC1
REMARK SMILES IDX 9 1 6 2 7 3 8 4 5 5 4 6 22 7 3 8 23 9 2 10 1 11 10 13 11 14
REMARK SMILES IDX 12 15 13 16 14 19 15 20 21 21 16 22 17 23 18 24 19 25 20 26
REMARK H PARENT 2 12 10 17 13 18
ROOT
ATOM      1  C   UNL     1      52.124  52.610  19.318  1.00  0.00    +0.139 C 
ENDROOT
BRANCH   1   2
ATOM      2  C   UNL     1      51.374  53.263  20.534  1.00  0.00    +0.033 C 
ATOM      3  C   UNL     1      51.516  52.347  21.772  1.00  0.00    +0.030 C 
ATOM      4  C   UNL     1      49.869  53.359  20.171  1.00  0.00    +0.030 C 
BRANCH   2   5
ATOM      5  N   UNL     1      51.946  54.635  20.767  1.00  0.00    -0.285 NA
ATOM      6  C   UNL     1      51.407  55.350  21.948  1.00  0.00    +0.146 C 
ATOM      7  C   UNL     1      51.942  55.538  19.588  1.00  0.00    +0.146 C 
ATOM      8  C   UNL     1      52.291  56.560  22.355  1.00  0.00    +0.277 C 
ATOM      9  C   UNL     1      52.461  56.967  19.900  1.00  0.00    +0.277 C 
ATOM     10  N   UNL     1      53.217  56.938  21.211  1.00  0.00    -0.335 N 
ATOM     11  C   UNL     1      54.024  58.162  21.479  1.00  0.00    +0.332 C 
ATOM     12  H   UNL     1      53.855  56.131  21.129  1.00  0.00    +0.347 HD
ENDBRANCH   2   5
ENDBRANCH   1   2
BRANCH   1  13
ATOM     13  N   UNL     1      51.350  52.464  18.095  1.00  0.00    -0.336 N 
ATOM     14  C   UNL     1      50.670  51.267  17.909  1.00  0.00    +0.321 C 
ATOM     15  O   UNL     1      50.756  50.350  18.713  1.00  0.00    -0.248 OA
ATOM     16  N   UNL     1      49.946  51.286  16.747  1.00  0.00    -0.282 N 
ATOM     17  H   UNL     1      50.822  53.269  17.789  1.00  0.00    +0.165 HD
ATOM     18  H   UNL     1      50.151  51.969  16.037  1.00  0.00    +0.174 HD
BRANCH  16  19
ATOM     19  C   UNL     1      49.106  50.261  16.411  1.00  0.00    +0.213 A 
ATOM     20  N   UNL     1      49.312  49.212  15.654  1.00  0.00    -0.120 NA
ATOM     21  S   UNL     1      47.554  50.346  17.122  1.00  0.00    -0.079 S 
ATOM     22  N   UNL     1      48.202  48.388  15.613  1.00  0.00    -0.141 NA
ATOM     23  C   UNL     1      47.216  48.859  16.344  1.00  0.00    +0.122 A 
BRANCH  23  24
ATOM     24  C   UNL     1      45.859  48.092  16.441  1.00  0.00    +0.051 C 
ATOM     25  C   UNL     1      45.608  47.256  17.678  1.00  0.00    +0.011 C 
ATOM     26  C   UNL     1      44.777  48.480  17.414  1.00  0.00    +0.011 C 
ENDBRANCH  23  24
ENDBRANCH  16  19
ENDBRANCH   1  13
TORSDOF 5
ENDMDL
MODEL 4
REMARK VINA RESULT:    -7.095      1.909      2.773
REMARK INTER + INTRA:          -9.799
REMARK INTER:                  -9.412
REMARK INTRA:                  -0.387
REMARK UNBOUND:                -0.630
REMARK SMILES C[NH+]1CCN(C(C)(C)CNC(=O)Nc2nnc(C3CC3)s2)CC1
REMARK SMILES IDX 9 1 6 2 7 3 8 4 5 5 4 6 22 7 3 8 23 9 2 10 1 11 10 13 11 14
REMARK SMILES IDX 12 15 13 16 14 19 15 20 21 21 16 22 17 23 18 24 19 25 20 26
REMARK H PARENT 2 12 10 17 13 18
ROOT
ATOM      1  C   UNL     1      48.669  49.626  16.328  1.00  0.00    +0.139 C 
ENDROOT
BRANCH   1   2
ATOM      2  C   UNL     1      47.797  48.468  16.933  1.00  0.00    +0.033 C 
ATOM      3  C   UNL     1      47.266  48.902  18.319  1.00  0.00    +0.030 C 
ATOM      4  C   UNL     1      48.714  47.232  17.130  1.00  0.00    +0.030 C 
BRANCH   2   5
ATOM      5  N   UNL     1      46.688  48.150  15.968  1.00  0.00    -0.285 NA
ATOM      6  C   UNL     1      46.105  46.795  16.101  1.00  0.00    +0.146 C 
ATOM      7  C   UNL     1      46.983  48.433  14.540  1.00  0.00    +0.146 C 
ATOM      8  C   UNL     1      44.743  46.666  15.367  1.00  0.00    +0.277 C 
ATOM      9  C   UNL     1      45.843  48.009  13.575  1.00  0.00    +0.277 C 
ATOM     10  N   UNL     1      44.575  47.806  14.377  1.00  0.00    -0.335 N 
ATOM     11  C   UNL     1      43.340  47.698  13.549  1.00  0.00    +0.332 C 
ATOM     12  H   UNL     1      44.503  48.646  14.972  1.00  0.00    +0.347 HD
ENDBRANCH   2   5
ENDBRANCH   1   2
BRANCH   1  13
ATOM     13  N   UNL     1      49.872  49.972  17.068  1.00  0.00    -0.336 N 
ATOM     14  C   UNL     1      50.022  51.295  17.463  1.00  0.00    +0.321 C 
ATOM     15  O   UNL     1      49.203  52.150  17.158  1.00  0.00    -0.248 OA
ATOM     16  N   UNL     1      51.168  51.467  18.190  1.00  0.00    -0.282 N 
ATOM     17  H   UNL     1      50.183  49.314  17.770  1.00  0.00    +0.165 HD
ATOM     18  H   UNL     1      51.895  50.773  18.158  1.00  0.00    +0.174 HD
BRANCH  16  19
ATOM     19  C   UNL     1      51.467  52.664  18.782  1.00  0.00    +0.213 A 
ATOM     20  N   UNL     1      52.375  53.555  18.475  1.00  0.00    -0.120 NA
ATOM     21  S   UNL     1      50.471  53.072  20.110  1.00  0.00    -0.079 S 
ATOM     22  N   UNL     1      52.311  54.657  19.309  1.00  0.00    -0.141 NA
ATOM     23  C   UNL     1      51.353  54.538  20.203  1.00  0.00    +0.122 A 
BRANCH  23  24
ATOM     24  C   UNL     1      51.100  55.664  21.254  1.00  0.00    +0.051 C 
ATOM     25  C   UNL     1      51.677  55.478  22.641  1.00  0.00    +0.011 C 
ATOM     26  C   UNL     1      52.195  56.572  21.749  1.00  0.00    +0.011 C 
ENDBRANCH  23  24
ENDBRANCH  16  19
ENDBRANCH   1  13
TORSDOF 5
ENDMDL
MODEL 5
REMARK VINA RESULT:    -6.928      1.851      2.283
REMARK INTER + INTRA:          -9.583
REMARK INTER:                  -9.169
REMARK INTRA:                  -0.414
REMARK UNBOUND:                -0.630
REMARK SMILES C[NH+]1CCN(C(C)(C)CNC(=O)Nc2nnc(C3CC3)s2)CC1
REMARK SMILES IDX 9 1 6 2 7 3 8 4 5 5 4 6 22 7 3 8 23 9 2 10 1 11 10 13 11 14
REMARK SMILES IDX 12 15 13 16 14 19 15 20 21 21 16 22 17 23 18 24 19 25 20 26
REMARK H PARENT 2 12 10 17 13 18
ROOT
ATOM      1  C   UNL     1      49.879  50.449  17.770  1.00  0.00    +0.139 C 
ENDROOT
BRANCH   1   2
ATOM      2  C   UNL     1      49.102  50.410  16.406  1.00  0.00    +0.033 C 
ATOM      3  C   UNL     1      50.091  50.077  15.265  1.00  0.00    +0.030 C 
ATOM      4  C   UNL     1      48.520  51.825  16.147  1.00  0.00    +0.030 C 
BRANCH   2   5
ATOM      5  N   UNL     1      47.993  49.399  16.517  1.00  0.00    -0.285 NA
ATOM      6  C   UNL     1      46.801  49.852  17.272  1.00  0.00    +0.146 C 
ATOM      7  C   UNL     1      48.402  48.051  16.985  1.00  0.00    +0.146 C 
ATOM      8  C   UNL     1      45.569  48.940  17.025  1.00  0.00    +0.277 C 
ATOM      9  C   UNL     1      47.213  47.069  17.166  1.00  0.00    +0.277 C 
ATOM     10  N   UNL     1      46.011  47.616  16.425  1.00  0.00    -0.335 N 
ATOM     11  C   UNL     1      44.900  46.637  16.259  1.00  0.00    +0.332 C 
ATOM     12  H   UNL     1      46.371  47.872  15.493  1.00  0.00    +0.347 HD
ENDBRANCH   2   5
ENDBRANCH   1   2
BRANCH   1  13
ATOM     13  N   UNL     1      49.528  51.534  18.674  1.00  0.00    -0.336 N 
ATOM     14  C   UNL     1      50.569  52.272  19.221  1.00  0.00    +0.321 C 
ATOM     15  O   UNL     1      51.738  51.993  18.997  1.00  0.00    -0.248 OA
ATOM     16  N   UNL     1      50.095  53.287  20.008  1.00  0.00    -0.282 N 
ATOM     17  H   UNL     1      48.733  52.104  18.417  1.00  0.00    +0.165 HD
ATOM     18  H   UNL     1      49.145  53.268  20.338  1.00  0.00    +0.174 HD
BRANCH  16  19
ATOM     19  C   UNL     1      50.934  54.215  20.561  1.00  0.00    +0.213 A 
ATOM     20  N   UNL     1      51.493  54.251  21.744  1.00  0.00    -0.120 NA
ATOM     21  S   UNL     1      51.343  55.513  19.527  1.00  0.00    -0.079 S 
ATOM     22  N   UNL     1      52.317  55.354  21.885  1.00  0.00    -0.141 NA
ATOM     23  C   UNL     1      52.336  56.092  20.797  1.00  0.00    +0.122 A 
BRANCH  23  24
ATOM     24  C   UNL     1      53.198  57.392  20.730  1.00  0.00    +0.051 C 
ATOM     25  C   UNL     1      52.726  58.592  21.522  1.00  0.00    +0.011 C 
ATOM     26  C   UNL     1      54.001  57.893  21.903  1.00  0.00    +0.011 C 
ENDBRANCH  23  24
ENDBRANCH  16  19
ENDBRANCH   1  13
TORSDOF 5
ENDMDL
