MODEL 1
REMARK VINA RESULT:    -7.712      0.000      0.000
REMARK INTER + INTRA:         -10.446
REMARK INTER:                  -9.967
REMARK INTRA:                  -0.479
REMARK UNBOUND:                -0.479
REMARK SMILES Cc1cnc(NC(=O)NCC2(CC(=O)[O-])CCCCC2)s1
REMARK SMILES IDX 11 1 16 2 17 3 18 4 19 5 20 6 10 7 9 8 6 9 7 10 8 11 5 14
REMARK SMILES IDX 2 15 3 16 21 17 4 18 1 19 12 20 13 21 14 22 15 23
REMARK H PARENT 6 12 9 13
ROOT
ATOM      1  C   UNL     1      48.207  49.963  16.608  1.00  0.00    -0.007 C 
ATOM      2  C   UNL     1      46.755  49.557  16.210  1.00  0.00    +0.009 C 
ATOM      3  C   UNL     1      45.793  49.494  17.395  1.00  0.00    +0.001 C 
ATOM      4  C   UNL     1      46.242  48.476  18.442  1.00  0.00    +0.000 C 
ATOM      5  C   UNL     1      47.761  48.350  18.556  1.00  0.00    +0.001 C 
ATOM      6  C   UNL     1      48.471  49.623  18.108  1.00  0.00    +0.009 C 
ENDROOT
BRANCH   1   7
ATOM      7  C   UNL     1      48.487  51.482  16.401  1.00  0.00    +0.125 C 
BRANCH   7   8
ATOM      8  N   UNL     1      49.706  51.931  17.059  1.00  0.00    -0.337 N 
ATOM      9  N   UNL     1      51.032  53.191  18.382  1.00  0.00    -0.284 N 
ATOM     10  C   UNL     1      49.763  53.044  17.875  1.00  0.00    +0.321 C 
ATOM     11  O   UNL     1      48.810  53.787  18.063  1.00  0.00    -0.248 OA
ATOM     12  H   UNL     1      51.766  52.610  18.020  1.00  0.00    +0.174 HD
ATOM     13  H   UNL     1      50.371  51.192  17.226  1.00  0.00    +0.165 HD
BRANCH   9  14
ATOM     14  C   UNL     1      51.388  54.198  19.230  1.00  0.00    +0.190 A 
ATOM     15  C   UNL     1      51.672  55.401  21.301  1.00  0.00    +0.023 A 
ATOM     16  C   UNL     1      52.101  56.051  20.162  1.00  0.00    +0.128 A 
ATOM     17  S   UNL     1      51.040  53.864  20.872  1.00  0.00    -0.102 S 
ATOM     18  N   UNL     1      51.933  55.359  18.981  1.00  0.00    -0.228 NA
ATOM     19  C   UNL     1      51.703  55.850  22.716  1.00  0.00    +0.058 C 
ENDBRANCH   9  14
ENDBRANCH   7   8
ENDBRANCH   1   7
BRANCH   1  20
ATOM     20  C   UNL     1      49.220  49.168  15.735  1.00  0.00    +0.061 C 
BRANCH  20  21
ATOM     21  C   UNL     1      49.651  49.700  14.359  1.00  0.00    +0.042 C 
ATOM     22  O   UNL     1      50.890  49.934  14.260  1.00  0.00    -0.550 OA
ATOM     23  O   UNL     1      48.742  49.843  13.496  1.00  0.00    -0.550 OA
ENDBRANCH  20  21
ENDBRANCH   1  20
TORSDOF 5
ENDMDL
MODEL 2
REMARK VINA RESULT:    -7.601      2.838      7.349
REMARK INTER + INTRA:         -10.302
REMARK INTER:                  -9.749
REMARK INTRA:                  -0.553
REMARK UNBOUND:                -0.479
REMARK SMILES Cc1cnc(NC(=O)NCC2(CC(=O)[O-])CCCCC2)s1
REMARK SMILES IDX 11 1 16 2 17 3 18 4 19 5 20 6 10 7 9 8 6 9 7 10 8 11 5 14
REMARK SMILES IDX 2 15 3 16 21 17 4 18 1 19 12 20 13 21 14 22 15 23
REMARK H PARENT 6 12 9 13
ROOT
ATOM      1  C   UNL     1      49.746  55.408  20.107  1.00  0.00    -0.007 C 
ATOM      2  C   UNL     1      48.220  55.689  20.269  1.00  0.00    +0.009 C 
ATOM      3  C   UNL     1      47.871  57.176  20.275  1.00  0.00    +0.001 C 
ATOM      4  C   UNL     1      48.560  57.919  21.418  1.00  0.00    +0.000 C 
ATOM      5  C   UNL     1      49.935  57.355  21.771  1.00  0.00    +0.001 C 
ATOM      6  C   UNL     1      50.576  56.640  20.586  1.00  0.00    +0.009 C 
ENDROOT
BRANCH   1   7
ATOM      7  C   UNL     1      50.150  55.099  18.634  1.00  0.00    +0.125 C 
BRANCH   7   8
ATOM      8  N   UNL     1      50.512  53.704  18.423  1.00  0.00    -0.337 N 
ATOM      9  N   UNL     1      50.366  51.598  17.626  1.00  0.00    -0.284 N 
ATOM     10  C   UNL     1      49.751  52.825  17.679  1.00  0.00    +0.321 C 
ATOM     11  O   UNL     1      48.672  53.124  17.186  1.00  0.00    -0.248 OA
ATOM     12  H   UNL     1      51.166  51.434  18.210  1.00  0.00    +0.174 HD
ATOM     13  H   UNL     1      51.504  53.530  18.485  1.00  0.00    +0.165 HD
BRANCH   9  14
ATOM     14  C   UNL     1      49.852  50.530  16.950  1.00  0.00    +0.190 A 
ATOM     15  C   UNL     1      48.756  48.412  16.588  1.00  0.00    +0.023 A 
ATOM     16  C   UNL     1      49.212  49.057  15.456  1.00  0.00    +0.128 A 
ATOM     17  S   UNL     1      49.126  49.362  17.968  1.00  0.00    -0.102 S 
ATOM     18  N   UNL     1      49.840  50.266  15.670  1.00  0.00    -0.228 NA
ATOM     19  C   UNL     1      48.047  47.114  16.717  1.00  0.00    +0.058 C 
ENDBRANCH   9  14
ENDBRANCH   7   8
ENDBRANCH   1   7
BRANCH   1  20
ATOM     20  C   UNL     1      50.138  54.179  20.977  1.00  0.00    +0.061 C 
BRANCH  20  21
ATOM     21  C   UNL     1      51.593  53.973  21.427  1.00  0.00    +0.042 C 
ATOM     22  O   UNL     1      51.837  54.391  22.595  1.00  0.00    -0.550 OA
ATOM     23  O   UNL     1      52.369  53.421  20.600  1.00  0.00    -0.550 OA
ENDBRANCH  20  21
ENDBRANCH   1  20
TORSDOF 5
ENDMDL
MODEL 3
REMARK VINA RESULT:    -7.242      2.234      3.127
REMARK INTER + INTRA:          -9.837
REMARK INTER:                  -9.797
REMARK INTRA:                  -0.040
REMARK UNBOUND:                -0.479
REMARK SMILES Cc1cnc(NC(=O)NCC2(CC(=O)[O-])CCCCC2)s1
REMARK SMILES IDX 11 1 16 2 17 3 18 4 19 5 20 6 10 7 9 8 6 9 7 10 8 11 5 14
REMARK SMILES IDX 2 15 3 16 21 17 4 18 1 19 12 20 13 21 14 22 15 23
REMARK H PARENT 6 12 9 13
ROOT
ATOM      1  C   UNL     1      47.042  49.680  17.110  1.00  0.00    -0.007 C 
ATOM      2  C   UNL     1      47.770  49.014  18.318  1.00  0.00    +0.009 C 
ATOM      3  C   UNL     1      48.995  48.195  17.916  1.00  0.00    +0.001 C 
ATOM      4  C   UNL     1      48.631  47.056  16.964  1.00  0.00    +0.000 C 
ATOM      5  C   UNL     1      47.473  47.391  16.027  1.00  0.00    +0.001 C 
ATOM      6  C   UNL     1      47.345  48.894  15.796  1.00  0.00    +0.009 C 
ENDROOT
BRANCH   1   7
ATOM      7  C   UNL     1      47.466  51.164  16.892  1.00  0.00    +0.125 C 
BRANCH   7   8
ATOM      8  N   UNL     1      48.780  51.467  17.443  1.00  0.00    -0.337 N 
ATOM      9  N   UNL     1      50.379  52.632  18.527  1.00  0.00    -0.284 N 
ATOM     10  C   UNL     1      49.080  52.654  18.082  1.00  0.00    +0.321 C 
ATOM     11  O   UNL     1      48.287  53.580  18.184  1.00  0.00    -0.248 OA
ATOM     12  H   UNL     1      50.977  51.880  18.236  1.00  0.00    +0.174 HD
ATOM     13  H   UNL     1      49.309  50.648  17.700  1.00  0.00    +0.165 HD
BRANCH   9  14
ATOM     14  C   UNL     1      50.956  53.665  19.206  1.00  0.00    +0.190 A 
ATOM     15  C   UNL     1      51.537  55.093  21.062  1.00  0.00    +0.023 A 
ATOM     16  C   UNL     1      52.056  55.456  19.836  1.00  0.00    +0.128 A 
ATOM     17  S   UNL     1      50.596  53.670  20.879  1.00  0.00    -0.102 S 
ATOM     18  N   UNL     1      51.718  54.637  18.778  1.00  0.00    -0.228 NA
ATOM     19  C   UNL     1      51.699  55.741  22.387  1.00  0.00    +0.058 C 
ENDBRANCH   9  14
ENDBRANCH   7   8
ENDBRANCH   1   7
BRANCH   1  20
ATOM     20  C   UNL     1      45.506  49.654  17.358  1.00  0.00    +0.061 C 
BRANCH  20  21
ATOM     21  C   UNL     1      44.778  48.324  17.609  1.00  0.00    +0.042 C 
ATOM     22  O   UNL     1      44.129  47.894  16.612  1.00  0.00    -0.550 OA
ATOM     23  O   UNL     1      44.905  47.816  18.756  1.00  0.00    -0.550 OA
ENDBRANCH  20  21
ENDBRANCH   1  20
TORSDOF 5
ENDMDL
MODEL 4
REMARK VINA RESULT:    -7.212      2.572      7.517
REMARK INTER + INTRA:          -9.799
REMARK INTER:                  -9.054
REMARK INTRA:                  -0.745
REMARK UNBOUND:                -0.479
REMARK SMILES Cc1cnc(NC(=O)NCC2(CC(=O)[O-])CCCCC2)s1
REMARK SMILES IDX 11 1 16 2 17 3 18 4 19 5 20 6 10 7 9 8 6 9 7 10 8 11 5 14
REMARK SMILES IDX 2 15 3 16 21 17 4 18 1 19 12 20 13 21 14 22 15 23
REMARK H PARENT 6 12 9 13
ROOT
ATOM      1  C   UNL     1      51.147  54.501  20.291  1.00  0.00    -0.007 C 
ATOM      2  C   UNL     1      51.546  55.867  19.652  1.00  0.00    +0.009 C 
ATOM      3  C   UNL     1      52.738  56.535  20.335  1.00  0.00    +0.001 C 
ATOM      4  C   UNL     1      52.462  56.825  21.809  1.00  0.00    +0.000 C 
ATOM      5  C   UNL     1      51.556  55.791  22.475  1.00  0.00    +0.001 C 
ATOM      6  C   UNL     1      51.629  54.438  21.774  1.00  0.00    +0.009 C 
ENDROOT
BRANCH   1   7
ATOM      7  C   UNL     1      51.753  53.281  19.535  1.00  0.00    +0.125 C 
BRANCH   7   8
ATOM      8  N   UNL     1      51.043  52.964  18.303  1.00  0.00    -0.337 N 
ATOM      9  N   UNL     1      49.851  51.745  16.826  1.00  0.00    -0.284 N 
ATOM     10  C   UNL     1      50.487  51.728  18.044  1.00  0.00    +0.321 C 
ATOM     11  O   UNL     1      50.597  50.771  18.798  1.00  0.00    -0.248 OA
ATOM     12  H   UNL     1      49.973  52.543  16.229  1.00  0.00    +0.174 HD
ATOM     13  H   UNL     1      50.630  53.769  17.857  1.00  0.00    +0.165 HD
BRANCH   9  14
ATOM     14  C   UNL     1      49.198  50.666  16.306  1.00  0.00    +0.190 A 
ATOM     15  C   UNL     1      47.387  49.144  15.834  1.00  0.00    +0.023 A 
ATOM     16  C   UNL     1      48.610  48.815  15.287  1.00  0.00    +0.128 A 
ATOM     17  S   UNL     1      47.539  50.604  16.723  1.00  0.00    -0.102 S 
ATOM     18  N   UNL     1      49.642  49.687  15.562  1.00  0.00    -0.228 NA
ATOM     19  C   UNL     1      46.085  48.436  15.739  1.00  0.00    +0.058 C 
ENDBRANCH   9  14
ENDBRANCH   7   8
ENDBRANCH   1   7
BRANCH   1  20
ATOM     20  C   UNL     1      49.598  54.356  20.268  1.00  0.00    +0.061 C 
BRANCH  20  21
ATOM     21  C   UNL     1      48.738  55.311  19.425  1.00  0.00    +0.042 C 
ATOM     22  O   UNL     1      48.671  55.001  18.200  1.00  0.00    -0.550 OA
ATOM     23  O   UNL     1      48.202  56.277  20.032  1.00  0.00    -0.550 OA
ENDBRANCH  20  21
ENDBRANCH   1  20
TORSDOF 5
ENDMDL
MODEL 5
REMARK VINA RESULT:    -6.824      2.761      8.045
REMARK INTER + INTRA:          -9.297
REMARK INTER:                  -8.870
REMARK INTRA:                  -0.427
REMARK UNBOUND:                -0.479
REMARK SMILES Cc1cnc(NC(=O)NCC2(CC(=O)[O-])CCCCC2)s1
REMARK SMILES IDX 11 1 16 2 17 3 18 4 19 5 20 6 10 7 9 8 6 9 7 10 8 11 5 14
REMARK SMILES IDX 2 15 3 16 21 17 4 18 1 19 12 20 13 21 14 22 15 23
REMARK H PARENT 6 12 9 13
ROOT
ATOM      1  C   UNL     1      50.289  56.212  20.230  1.00  0.00    -0.007 C 
ATOM      2  C   UNL     1      51.106  57.541  20.216  1.00  0.00    +0.009 C 
ATOM      3  C   UNL     1      52.557  57.369  20.664  1.00  0.00    +0.001 C 
ATOM      4  C   UNL     1      52.653  56.831  22.090  1.00  0.00    +0.000 C 
ATOM      5  C   UNL     1      51.519  55.877  22.460  1.00  0.00    +0.001 C 
ATOM      6  C   UNL     1      50.925  55.197  21.231  1.00  0.00    +0.009 C 
ENDROOT
BRANCH   1   7
ATOM      7  C   UNL     1      50.220  55.531  18.831  1.00  0.00    +0.125 C 
BRANCH   7   8
ATOM      8  N   UNL     1      50.616  54.130  18.859  1.00  0.00    -0.337 N 
ATOM      9  N   UNL     1      50.442  51.897  18.586  1.00  0.00    -0.284 N 
ATOM     10  C   UNL     1      49.777  53.096  18.496  1.00  0.00    +0.321 C 
ATOM     11  O   UNL     1      48.606  53.261  18.183  1.00  0.00    -0.248 OA
ATOM     12  H   UNL     1      51.350  51.880  19.014  1.00  0.00    +0.174 HD
ATOM     13  H   UNL     1      51.609  53.989  18.751  1.00  0.00    +0.165 HD
BRANCH   9  14
ATOM     14  C   UNL     1      49.869  50.697  18.280  1.00  0.00    +0.190 A 
ATOM     15  C   UNL     1      48.976  48.910  16.928  1.00  0.00    +0.023 A 
ATOM     16  C   UNL     1      48.923  48.719  18.294  1.00  0.00    +0.128 A 
ATOM     17  S   UNL     1      49.697  50.432  16.598  1.00  0.00    -0.102 S 
ATOM     18  N   UNL     1      49.432  49.746  19.061  1.00  0.00    -0.228 NA
ATOM     19  C   UNL     1      48.522  48.021  15.830  1.00  0.00    +0.058 C 
ENDBRANCH   9  14
ENDBRANCH   7   8
ENDBRANCH   1   7
BRANCH   1  20
ATOM     20  C   UNL     1      48.832  56.511  20.688  1.00  0.00    +0.061 C 
BRANCH  20  21
ATOM     21  C   UNL     1      48.397  57.947  21.022  1.00  0.00    +0.042 C 
ATOM     22  O   UNL     1      48.721  58.328  22.183  1.00  0.00    -0.550 OA
ATOM     23  O   UNL     1      47.779  58.576  20.121  1.00  0.00    -0.550 OA
ENDBRANCH  20  21
ENDBRANCH   1  20
TORSDOF 5
ENDMDL
