MODEL 1
REMARK VINA RESULT:    -8.451      0.000      0.000
REMARK INTER + INTRA:         -12.188
REMARK INTER:                 -11.168
REMARK INTRA:                  -1.020
REMARK UNBOUND:                -1.020
REMARK SMILES CC(C)C[C@H](C)Oc1nc2c(cc1/C(N)=N/O)CCCC2
REMARK SMILES IDX 7 1 5 2 6 3 4 4 2 5 1 6 3 7 8 8 13 9 9 10 12 11 10 12 11 13
REMARK SMILES IDX 21 14 18 15 20 16 19 17 14 18 16 19 15 20 17 23
REMARK H PARENT 15 21 15 22 17 24
ROOT
ATOM      1  O   UNL     1      50.178  51.715  17.534  1.00  0.00    -0.474 OA
ENDROOT
BRANCH   1   2
ATOM      2  C   UNL     1      48.825  51.238  17.665  1.00  0.00    +0.172 C 
ATOM      3  C   UNL     1      48.228  51.251  16.261  1.00  0.00    +0.053 C 
BRANCH   2   4
ATOM      4  C   UNL     1      48.882  49.822  18.262  1.00  0.00    +0.048 C 
BRANCH   4   5
ATOM      5  C   UNL     1      47.866  48.815  17.691  1.00  0.00    -0.014 C 
ATOM      6  C   UNL     1      48.603  47.571  17.195  1.00  0.00    +0.007 C 
ATOM      7  C   UNL     1      46.807  48.411  18.720  1.00  0.00    +0.007 C 
ENDBRANCH   4   5
ENDBRANCH   2   4
ENDBRANCH   1   2
BRANCH   1   8
ATOM      8  C   UNL     1      50.502  52.605  18.535  1.00  0.00    +0.225 A 
ATOM      9  C   UNL     1      51.539  52.311  19.419  1.00  0.00    +0.083 A 
ATOM     10  N   UNL     1      49.709  53.704  18.631  1.00  0.00    -0.218 NA
ATOM     11  C   UNL     1      51.787  53.247  20.431  1.00  0.00    +0.023 A 
ATOM     12  C   UNL     1      49.962  54.583  19.628  1.00  0.00    +0.048 A 
ATOM     13  C   UNL     1      51.006  54.406  20.540  1.00  0.00    -0.025 A 
ATOM     14  C   UNL     1      49.083  55.803  19.677  1.00  0.00    +0.056 C 
ATOM     15  C   UNL     1      51.259  55.371  21.665  1.00  0.00    +0.037 C 
ATOM     16  C   UNL     1      49.118  56.515  21.027  1.00  0.00    +0.007 C 
ATOM     17  C   UNL     1      50.559  56.719  21.479  1.00  0.00    +0.005 C 
BRANCH   9  18
ATOM     18  C   UNL     1      52.391  51.081  19.333  1.00  0.00    +0.175 C 
ATOM     19  N   UNL     1      52.835  50.561  20.451  1.00  0.00    -0.070 NA
ATOM     20  N   UNL     1      52.684  50.512  18.119  1.00  0.00    -0.380 N 
ATOM     21  H   UNL     1      52.965  49.540  18.210  1.00  0.00    +0.158 HD
ATOM     22  H   UNL     1      52.069  50.721  17.340  1.00  0.00    +0.158 HD
BRANCH  19  23
ATOM     23  O   UNL     1      53.585  49.400  20.206  1.00  0.00    -0.409 OA
ATOM     24  H   UNL     1      54.461  49.768  19.986  1.00  0.00    +0.330 HD
ENDBRANCH  19  23
ENDBRANCH   9  18
ENDBRANCH   1   8
TORSDOF 6
ENDMDL
MODEL 2
REMARK VINA RESULT:    -8.387      1.685      2.093
REMARK INTER + INTRA:         -12.103
REMARK INTER:                 -11.121
REMARK INTRA:                  -0.982
REMARK UNBOUND:                -1.020
REMARK SMILES CC(C)C[C@H](C)Oc1nc2c(cc1/C(N)=N/O)CCCC2
REMARK SMILES IDX 7 1 5 2 6 3 4 4 2 5 1 6 3 7 8 8 13 9 9 10 12 11 10 12 11 13
REMARK SMILES IDX 21 14 18 15 20 16 19 17 14 18 16 19 15 20 17 23
REMARK H PARENT 15 21 15 22 17 24
ROOT
ATOM      1  O   UNL     1      50.399  49.794  17.324  1.00  0.00    -0.474 OA
ENDROOT
BRANCH   1   2
ATOM      2  C   UNL     1      49.075  49.505  16.835  1.00  0.00    +0.172 C 
ATOM      3  C   UNL     1      49.256  48.862  15.463  1.00  0.00    +0.053 C 
BRANCH   2   4
ATOM      4  C   UNL     1      48.400  48.559  17.841  1.00  0.00    +0.048 C 
BRANCH   4   5
ATOM      5  C   UNL     1      47.029  49.018  18.374  1.00  0.00    -0.014 C 
ATOM      6  C   UNL     1      46.397  49.996  17.384  1.00  0.00    +0.007 C 
ATOM      7  C   UNL     1      46.078  47.844  18.618  1.00  0.00    +0.007 C 
ENDBRANCH   4   5
ENDBRANCH   2   4
ENDBRANCH   1   2
BRANCH   1   8
ATOM      8  C   UNL     1      50.393  50.838  18.224  1.00  0.00    +0.225 A 
ATOM      9  C   UNL     1      50.918  50.657  19.502  1.00  0.00    +0.083 A 
ATOM     10  N   UNL     1      49.788  51.979  17.802  1.00  0.00    -0.218 NA
ATOM     11  C   UNL     1      50.844  51.753  20.372  1.00  0.00    +0.023 A 
ATOM     12  C   UNL     1      49.718  53.016  18.670  1.00  0.00    +0.048 A 
ATOM     13  C   UNL     1      50.253  52.955  19.959  1.00  0.00    -0.025 A 
ATOM     14  C   UNL     1      49.072  54.272  18.153  1.00  0.00    +0.056 C 
ATOM     15  C   UNL     1      50.141  54.100  20.927  1.00  0.00    +0.037 C 
ATOM     16  C   UNL     1      48.636  55.225  19.263  1.00  0.00    +0.007 C 
ATOM     17  C   UNL     1      49.771  55.427  20.260  1.00  0.00    +0.005 C 
BRANCH   9  18
ATOM     18  C   UNL     1      51.553  49.386  19.977  1.00  0.00    +0.175 C 
ATOM     19  N   UNL     1      50.803  48.525  20.620  1.00  0.00    -0.070 NA
ATOM     20  N   UNL     1      52.880  49.129  19.732  1.00  0.00    -0.380 N 
ATOM     21  H   UNL     1      53.095  48.139  19.797  1.00  0.00    +0.158 HD
ATOM     22  H   UNL     1      53.322  49.627  18.968  1.00  0.00    +0.158 HD
BRANCH  19  23
ATOM     23  O   UNL     1      51.533  47.377  20.966  1.00  0.00    -0.409 OA
ATOM     24  H   UNL     1      51.984  47.663  21.782  1.00  0.00    +0.330 HD
ENDBRANCH  19  23
ENDBRANCH   9  18
ENDBRANCH   1   8
TORSDOF 6
ENDMDL
MODEL 3
REMARK VINA RESULT:    -6.060      2.465      6.569
REMARK INTER + INTRA:          -9.029
REMARK INTER:                  -8.346
REMARK INTRA:                  -0.683
REMARK UNBOUND:                -1.020
REMARK SMILES CC(C)C[C@H](C)Oc1nc2c(cc1/C(N)=N/O)CCCC2
REMARK SMILES IDX 7 1 5 2 6 3 4 4 2 5 1 6 3 7 8 8 13 9 9 10 12 11 10 12 11 13
REMARK SMILES IDX 21 14 18 15 20 16 19 17 14 18 16 19 15 20 17 23
REMARK H PARENT 15 21 15 22 17 24
ROOT
ATOM      1  O   UNL     1      49.420  54.452  18.890  1.00  0.00    -0.474 OA
ENDROOT
BRANCH   1   2
ATOM      2  C   UNL     1      50.800  54.383  19.297  1.00  0.00    +0.172 C 
ATOM      3  C   UNL     1      51.362  55.794  19.145  1.00  0.00    +0.053 C 
BRANCH   2   4
ATOM      4  C   UNL     1      50.835  53.894  20.754  1.00  0.00    +0.048 C 
BRANCH   4   5
ATOM      5  C   UNL     1      51.864  52.789  21.063  1.00  0.00    -0.014 C 
ATOM      6  C   UNL     1      51.161  51.609  21.733  1.00  0.00    +0.007 C 
ATOM      7  C   UNL     1      52.596  52.309  19.807  1.00  0.00    +0.007 C 
ENDBRANCH   4   5
ENDBRANCH   2   4
ENDBRANCH   1   2
BRANCH   1   8
ATOM      8  C   UNL     1      49.069  53.381  18.097  1.00  0.00    +0.225 A 
ATOM      9  C   UNL     1      48.357  53.592  16.918  1.00  0.00    +0.083 A 
ATOM     10  N   UNL     1      49.393  52.153  18.582  1.00  0.00    -0.218 NA
ATOM     11  C   UNL     1      48.005  52.452  16.184  1.00  0.00    +0.023 A 
ATOM     12  C   UNL     1      49.027  51.070  17.858  1.00  0.00    +0.048 A 
ATOM     13  C   UNL     1      48.350  51.173  16.641  1.00  0.00    -0.025 A 
ATOM     14  C   UNL     1      49.436  49.732  18.413  1.00  0.00    +0.056 C 
ATOM     15  C   UNL     1      47.918  49.961  15.860  1.00  0.00    +0.037 C 
ATOM     16  C   UNL     1      48.648  48.569  17.816  1.00  0.00    +0.007 C 
ATOM     17  C   UNL     1      48.622  48.675  16.296  1.00  0.00    +0.005 C 
BRANCH   9  18
ATOM     18  C   UNL     1      47.969  54.945  16.402  1.00  0.00    +0.175 C 
ATOM     19  N   UNL     1      47.234  55.003  15.319  1.00  0.00    -0.070 NA
ATOM     20  N   UNL     1      48.365  56.085  17.055  1.00  0.00    -0.380 N 
ATOM     21  H   UNL     1      47.783  56.883  16.818  1.00  0.00    +0.158 HD
ATOM     22  H   UNL     1      48.622  56.003  18.033  1.00  0.00    +0.158 HD
BRANCH  19  23
ATOM     23  O   UNL     1      46.929  56.332  14.986  1.00  0.00    -0.409 OA
ATOM     24  H   UNL     1      46.019  56.422  15.324  1.00  0.00    +0.330 HD
ENDBRANCH  19  23
ENDBRANCH   9  18
ENDBRANCH   1   8
TORSDOF 6
ENDMDL
MODEL 4
REMARK VINA RESULT:    -6.044      2.525      4.552
REMARK INTER + INTRA:          -9.007
REMARK INTER:                  -8.082
REMARK INTRA:                  -0.925
REMARK UNBOUND:                -1.020
REMARK SMILES CC(C)C[C@H](C)Oc1nc2c(cc1/C(N)=N/O)CCCC2
REMARK SMILES IDX 7 1 5 2 6 3 4 4 2 5 1 6 3 7 8 8 13 9 9 10 12 11 10 12 11 13
REMARK SMILES IDX 21 14 18 15 20 16 19 17 14 18 16 19 15 20 17 23
REMARK H PARENT 15 21 15 22 17 24
ROOT
ATOM      1  O   UNL     1      49.764  49.992  17.973  1.00  0.00    -0.474 OA
ENDROOT
BRANCH   1   2
ATOM      2  C   UNL     1      49.430  49.530  19.296  1.00  0.00    +0.172 C 
ATOM      3  C   UNL     1      48.178  48.672  19.147  1.00  0.00    +0.053 C 
BRANCH   2   4
ATOM      4  C   UNL     1      50.629  48.728  19.828  1.00  0.00    +0.048 C 
BRANCH   4   5
ATOM      5  C   UNL     1      51.699  49.545  20.577  1.00  0.00    -0.014 C 
ATOM      6  C   UNL     1      52.799  49.962  19.601  1.00  0.00    +0.007 C 
ATOM      7  C   UNL     1      51.114  50.786  21.257  1.00  0.00    +0.007 C 
ENDBRANCH   4   5
ENDBRANCH   2   4
ENDBRANCH   1   2
BRANCH   1   8
ATOM      8  C   UNL     1      49.340  51.287  17.764  1.00  0.00    +0.225 A 
ATOM      9  C   UNL     1      48.481  51.576  16.706  1.00  0.00    +0.083 A 
ATOM     10  N   UNL     1      49.872  52.225  18.592  1.00  0.00    -0.218 NA
ATOM     11  C   UNL     1      48.124  52.920  16.536  1.00  0.00    +0.023 A 
ATOM     12  C   UNL     1      49.520  53.516  18.393  1.00  0.00    +0.048 A 
ATOM     13  C   UNL     1      48.631  53.908  17.390  1.00  0.00    -0.025 A 
ATOM     14  C   UNL     1      50.104  54.518  19.353  1.00  0.00    +0.056 C 
ATOM     15  C   UNL     1      48.272  55.350  17.157  1.00  0.00    +0.037 C 
ATOM     16  C   UNL     1      50.034  55.954  18.839  1.00  0.00    +0.007 C 
ATOM     17  C   UNL     1      48.631  56.264  18.330  1.00  0.00    +0.005 C 
BRANCH   9  18
ATOM     18  C   UNL     1      47.924  50.545  15.772  1.00  0.00    +0.175 C 
ATOM     19  N   UNL     1      48.427  50.471  14.565  1.00  0.00    -0.070 NA
ATOM     20  N   UNL     1      46.923  49.698  16.177  1.00  0.00    -0.380 N 
ATOM     21  H   UNL     1      46.873  48.863  15.601  1.00  0.00    +0.158 HD
ATOM     22  H   UNL     1      46.804  49.552  17.174  1.00  0.00    +0.158 HD
BRANCH  19  23
ATOM     23  O   UNL     1      47.826  49.439  13.828  1.00  0.00    -0.409 OA
ATOM     24  H   UNL     1      48.526  48.761  13.821  1.00  0.00    +0.330 HD
ENDBRANCH  19  23
ENDBRANCH   9  18
ENDBRANCH   1   8
TORSDOF 6
ENDMDL
