MODEL 1
REMARK VINA RESULT:    -8.214      0.000      0.000
REMARK INTER + INTRA:         -13.429
REMARK INTER:                 -12.056
REMARK INTRA:                  -1.373
REMARK UNBOUND:                -1.373
REMARK SMILES CC(C)(C)OC(=O)NN/C(=C/c1ccccc1)NCc1ccco1
REMARK SMILES IDX 9 1 8 3 6 4 7 5 5 7 2 8 1 9 3 10 4 11 10 12 11 13 18 14
REMARK SMILES IDX 19 16 20 17 21 18 24 19 22 20 23 21 12 22 13 23 17 24 14 25
REMARK SMILES IDX 16 26 15 27
REMARK H PARENT 9 2 8 6 18 15
ROOT
ATOM      1  N   UNL     1      50.874  49.217  20.811  1.00  0.00    -0.281 N 
ATOM      2  H   UNL     1      50.619  48.436  21.419  1.00  0.00    +0.190 HD
ENDROOT
BRANCH   1   3
ATOM      3  N   UNL     1      51.051  50.406  21.528  1.00  0.00    -0.233 N 
ATOM      4  C   UNL     1      52.146  51.198  21.290  1.00  0.00    +0.426 C 
ATOM      5  O   UNL     1      53.123  50.896  20.621  1.00  0.00    -0.223 OA
ATOM      6  H   UNL     1      50.255  50.779  22.030  1.00  0.00    +0.195 HD
BRANCH   4   7
ATOM      7  O   UNL     1      51.966  52.380  21.933  1.00  0.00    -0.443 OA
BRANCH   7   8
ATOM      8  C   UNL     1      51.517  53.557  21.213  1.00  0.00    +0.106 C 
ATOM      9  C   UNL     1      51.656  54.706  22.225  1.00  0.00    +0.056 C 
ATOM     10  C   UNL     1      52.416  53.856  20.008  1.00  0.00    +0.056 C 
ATOM     11  C   UNL     1      50.044  53.432  20.810  1.00  0.00    +0.056 C 
ENDBRANCH   7   8
ENDBRANCH   4   7
ENDBRANCH   1   3
BRANCH   1  12
ATOM     12  C   UNL     1      50.212  49.184  19.592  1.00  0.00    +0.119 C 
ATOM     13  C   UNL     1      48.964  48.663  19.523  1.00  0.00    +0.054 C 
BRANCH  12  14
ATOM     14  N   UNL     1      50.819  49.698  18.455  1.00  0.00    -0.363 N 
ATOM     15  H   UNL     1      50.733  49.075  17.658  1.00  0.00    +0.162 HD
BRANCH  14  16
ATOM     16  C   UNL     1      50.843  51.102  18.072  1.00  0.00    +0.190 C 
BRANCH  16  17
ATOM     17  C   UNL     1      49.627  51.568  17.348  1.00  0.00    +0.122 A 
ATOM     18  C   UNL     1      48.625  52.464  17.656  1.00  0.00    +0.047 A 
ATOM     19  O   UNL     1      49.389  51.004  16.127  1.00  0.00    -0.467 OA
ATOM     20  C   UNL     1      47.733  52.458  16.556  1.00  0.00    +0.042 A 
ATOM     21  C   UNL     1      48.243  51.556  15.654  1.00  0.00    +0.195 A 
ENDBRANCH  16  17
ENDBRANCH  14  16
ENDBRANCH  12  14
BRANCH  13  22
ATOM     22  C   UNL     1      48.137  48.560  18.318  1.00  0.00    -0.022 A 
ATOM     23  C   UNL     1      48.582  47.833  17.210  1.00  0.00    +0.008 A 
ATOM     24  C   UNL     1      46.890  49.194  18.274  1.00  0.00    +0.008 A 
ATOM     25  C   UNL     1      47.782  47.730  16.070  1.00  0.00    +0.001 A 
ATOM     26  C   UNL     1      46.094  49.095  17.133  1.00  0.00    +0.001 A 
ATOM     27  C   UNL     1      46.537  48.355  16.035  1.00  0.00    +0.000 A 
ENDBRANCH  13  22
ENDBRANCH   1  12
TORSDOF 8
ENDMDL
MODEL 2
REMARK VINA RESULT:    -7.786      2.671      6.921
REMARK INTER + INTRA:         -12.801
REMARK INTER:                 -12.197
REMARK INTRA:                  -0.604
REMARK UNBOUND:                -1.373
REMARK SMILES CC(C)(C)OC(=O)NN/C(=C/c1ccccc1)NCc1ccco1
REMARK SMILES IDX 9 1 8 3 6 4 7 5 5 7 2 8 1 9 3 10 4 11 10 12 11 13 18 14
REMARK SMILES IDX 19 16 20 17 21 18 24 19 22 20 23 21 12 22 13 23 17 24 14 25
REMARK SMILES IDX 16 26 15 27
REMARK H PARENT 9 2 8 6 18 15
ROOT
ATOM      1  N   UNL     1      50.231  53.189  17.962  1.00  0.00    -0.281 N 
ATOM      2  H   UNL     1      50.228  53.395  16.961  1.00  0.00    +0.190 HD
ENDROOT
BRANCH   1   3
ATOM      3  N   UNL     1      49.445  52.074  18.273  1.00  0.00    -0.233 N 
ATOM      4  C   UNL     1      49.736  50.851  17.723  1.00  0.00    +0.426 C 
ATOM      5  O   UNL     1      50.527  50.637  16.817  1.00  0.00    -0.223 OA
ATOM      6  H   UNL     1      48.833  52.136  19.077  1.00  0.00    +0.195 HD
BRANCH   4   7
ATOM      7  O   UNL     1      48.986  49.911  18.352  1.00  0.00    -0.443 OA
BRANCH   7   8
ATOM      8  C   UNL     1      47.942  49.195  17.643  1.00  0.00    +0.106 C 
ATOM      9  C   UNL     1      47.098  48.543  18.750  1.00  0.00    +0.056 C 
ATOM     10  C   UNL     1      47.048  50.150  16.844  1.00  0.00    +0.056 C 
ATOM     11  C   UNL     1      48.530  48.090  16.759  1.00  0.00    +0.056 C 
ENDBRANCH   7   8
ENDBRANCH   4   7
ENDBRANCH   1   3
BRANCH   1  12
ATOM     12  C   UNL     1      50.224  54.337  18.743  1.00  0.00    +0.119 C 
ATOM     13  C   UNL     1      49.052  54.802  19.237  1.00  0.00    +0.054 C 
BRANCH  12  14
ATOM     14  N   UNL     1      51.413  54.992  19.030  1.00  0.00    -0.363 N 
ATOM     15  H   UNL     1      51.278  55.988  19.173  1.00  0.00    +0.162 HD
BRANCH  14  16
ATOM     16  C   UNL     1      52.504  54.451  19.828  1.00  0.00    +0.190 C 
BRANCH  16  17
ATOM     17  C   UNL     1      52.244  53.099  20.399  1.00  0.00    +0.122 A 
ATOM     18  C   UNL     1      51.754  52.660  21.610  1.00  0.00    +0.047 A 
ATOM     19  O   UNL     1      52.567  52.031  19.611  1.00  0.00    -0.467 OA
ATOM     20  C   UNL     1      51.763  51.245  21.554  1.00  0.00    +0.042 A 
ATOM     21  C   UNL     1      52.265  50.913  20.319  1.00  0.00    +0.195 A 
ENDBRANCH  16  17
ENDBRANCH  14  16
ENDBRANCH  12  14
BRANCH  13  22
ATOM     22  C   UNL     1      48.880  55.991  20.076  1.00  0.00    -0.022 A 
ATOM     23  C   UNL     1      49.817  56.304  21.065  1.00  0.00    +0.008 A 
ATOM     24  C   UNL     1      47.769  56.821  19.887  1.00  0.00    +0.008 A 
ATOM     25  C   UNL     1      49.652  57.446  21.853  1.00  0.00    +0.001 A 
ATOM     26  C   UNL     1      47.602  57.957  20.679  1.00  0.00    +0.001 A 
ATOM     27  C   UNL     1      48.548  58.274  21.654  1.00  0.00    +0.000 A 
ENDBRANCH  13  22
ENDBRANCH   1  12
TORSDOF 8
ENDMDL
MODEL 3
REMARK VINA RESULT:    -7.640      3.478      7.475
REMARK INTER + INTRA:         -12.587
REMARK INTER:                 -11.918
REMARK INTRA:                  -0.669
REMARK UNBOUND:                -1.373
REMARK SMILES CC(C)(C)OC(=O)NN/C(=C/c1ccccc1)NCc1ccco1
REMARK SMILES IDX 9 1 8 3 6 4 7 5 5 7 2 8 1 9 3 10 4 11 10 12 11 13 18 14
REMARK SMILES IDX 19 16 20 17 21 18 24 19 22 20 23 21 12 22 13 23 17 24 14 25
REMARK SMILES IDX 16 26 15 27
REMARK H PARENT 9 2 8 6 18 15
ROOT
ATOM      1  N   UNL     1      50.606  53.129  18.317  1.00  0.00    -0.281 N 
ATOM      2  H   UNL     1      50.998  53.106  17.373  1.00  0.00    +0.190 HD
ENDROOT
BRANCH   1   3
ATOM      3  N   UNL     1      49.715  52.074  18.542  1.00  0.00    -0.233 N 
ATOM      4  C   UNL     1      49.962  50.836  18.004  1.00  0.00    +0.426 C 
ATOM      5  O   UNL     1      50.813  50.569  17.169  1.00  0.00    -0.223 OA
ATOM      6  H   UNL     1      49.039  52.176  19.289  1.00  0.00    +0.195 HD
BRANCH   4   7
ATOM      7  O   UNL     1      49.091  49.951  18.551  1.00  0.00    -0.443 OA
BRANCH   7   8
ATOM      8  C   UNL     1      47.997  49.403  17.771  1.00  0.00    +0.106 C 
ATOM      9  C   UNL     1      47.162  48.602  18.782  1.00  0.00    +0.056 C 
ATOM     10  C   UNL     1      47.118  50.512  17.181  1.00  0.00    +0.056 C 
ATOM     11  C   UNL     1      48.512  48.447  16.690  1.00  0.00    +0.056 C 
ENDBRANCH   7   8
ENDBRANCH   4   7
ENDBRANCH   1   3
BRANCH   1  12
ATOM     12  C   UNL     1      50.346  54.420  18.756  1.00  0.00    +0.119 C 
ATOM     13  C   UNL     1      49.067  54.855  18.832  1.00  0.00    +0.054 C 
BRANCH  12  14
ATOM     14  N   UNL     1      51.392  55.252  19.131  1.00  0.00    -0.363 N 
ATOM     15  H   UNL     1      51.287  56.192  18.760  1.00  0.00    +0.162 HD
BRANCH  14  16
ATOM     16  C   UNL     1      52.071  55.227  20.418  1.00  0.00    +0.190 C 
BRANCH  16  17
ATOM     17  C   UNL     1      52.581  56.550  20.877  1.00  0.00    +0.122 A 
ATOM     18  C   UNL     1      51.990  57.628  21.502  1.00  0.00    +0.047 A 
ATOM     19  O   UNL     1      53.896  56.818  20.628  1.00  0.00    -0.467 OA
ATOM     20  C   UNL     1      53.005  58.603  21.658  1.00  0.00    +0.042 A 
ATOM     21  C   UNL     1      54.144  58.062  21.112  1.00  0.00    +0.195 A 
ENDBRANCH  16  17
ENDBRANCH  14  16
ENDBRANCH  12  14
BRANCH  13  22
ATOM     22  C   UNL     1      48.630  56.181  19.278  1.00  0.00    -0.022 A 
ATOM     23  C   UNL     1      48.188  57.131  18.352  1.00  0.00    +0.008 A 
ATOM     24  C   UNL     1      48.655  56.500  20.640  1.00  0.00    +0.008 A 
ATOM     25  C   UNL     1      47.762  58.388  18.786  1.00  0.00    +0.001 A 
ATOM     26  C   UNL     1      48.235  57.759  21.072  1.00  0.00    +0.001 A 
ATOM     27  C   UNL     1      47.780  58.698  20.146  1.00  0.00    +0.000 A 
ENDBRANCH  13  22
ENDBRANCH   1  12
TORSDOF 8
ENDMDL
MODEL 4
REMARK VINA RESULT:    -7.527      2.100      3.680
REMARK INTER + INTRA:         -12.419
REMARK INTER:                 -11.392
REMARK INTRA:                  -1.027
REMARK UNBOUND:                -1.373
REMARK SMILES CC(C)(C)OC(=O)NN/C(=C/c1ccccc1)NCc1ccco1
REMARK SMILES IDX 9 1 8 3 6 4 7 5 5 7 2 8 1 9 3 10 4 11 10 12 11 13 18 14
REMARK SMILES IDX 19 16 20 17 21 18 24 19 22 20 23 21 12 22 13 23 17 24 14 25
REMARK SMILES IDX 16 26 15 27
REMARK H PARENT 9 2 8 6 18 15
ROOT
ATOM      1  N   UNL     1      49.997  51.692  17.379  1.00  0.00    -0.281 N 
ATOM      2  H   UNL     1      50.967  51.400  17.513  1.00  0.00    +0.190 HD
ENDROOT
BRANCH   1   3
ATOM      3  N   UNL     1      49.686  52.840  18.116  1.00  0.00    -0.233 N 
ATOM      4  C   UNL     1      50.678  53.717  18.476  1.00  0.00    +0.426 C 
ATOM      5  O   UNL     1      51.881  53.526  18.379  1.00  0.00    -0.223 OA
ATOM      6  H   UNL     1      48.716  53.125  18.162  1.00  0.00    +0.195 HD
BRANCH   4   7
ATOM      7  O   UNL     1      50.097  54.840  18.971  1.00  0.00    -0.443 OA
BRANCH   7   8
ATOM      8  C   UNL     1      50.571  55.444  20.201  1.00  0.00    +0.106 C 
ATOM      9  C   UNL     1      49.406  56.329  20.673  1.00  0.00    +0.056 C 
ATOM     10  C   UNL     1      50.848  54.386  21.276  1.00  0.00    +0.056 C 
ATOM     11  C   UNL     1      51.793  56.333  19.947  1.00  0.00    +0.056 C 
ENDBRANCH   7   8
ENDBRANCH   4   7
ENDBRANCH   1   3
BRANCH   1  12
ATOM     12  C   UNL     1      49.124  50.617  17.287  1.00  0.00    +0.119 C 
ATOM     13  C   UNL     1      47.904  50.793  16.726  1.00  0.00    +0.054 C 
BRANCH  12  14
ATOM     14  N   UNL     1      49.506  49.367  17.752  1.00  0.00    -0.363 N 
ATOM     15  H   UNL     1      50.183  48.920  17.140  1.00  0.00    +0.162 HD
BRANCH  14  16
ATOM     16  C   UNL     1      49.686  49.005  19.150  1.00  0.00    +0.190 C 
BRANCH  16  17
ATOM     17  C   UNL     1      50.761  49.760  19.854  1.00  0.00    +0.122 A 
ATOM     18  C   UNL     1      50.822  50.416  21.065  1.00  0.00    +0.047 A 
ATOM     19  O   UNL     1      51.951  49.885  19.195  1.00  0.00    -0.467 OA
ATOM     20  C   UNL     1      52.126  50.959  21.160  1.00  0.00    +0.042 A 
ATOM     21  C   UNL     1      52.773  50.607  19.999  1.00  0.00    +0.195 A 
ENDBRANCH  16  17
ENDBRANCH  14  16
ENDBRANCH  12  14
BRANCH  13  22
ATOM     22  C   UNL     1      46.877  49.763  16.553  1.00  0.00    -0.022 A 
ATOM     23  C   UNL     1      45.872  49.593  17.511  1.00  0.00    +0.008 A 
ATOM     24  C   UNL     1      46.898  48.942  15.420  1.00  0.00    +0.008 A 
ATOM     25  C   UNL     1      44.889  48.617  17.332  1.00  0.00    +0.001 A 
ATOM     26  C   UNL     1      45.920  47.963  15.245  1.00  0.00    +0.001 A 
ATOM     27  C   UNL     1      44.910  47.808  16.197  1.00  0.00    +0.000 A 
ENDBRANCH  13  22
ENDBRANCH   1  12
TORSDOF 8
ENDMDL
MODEL 5
REMARK VINA RESULT:    -7.483      2.791      7.241
REMARK INTER + INTRA:         -12.355
REMARK INTER:                 -10.978
REMARK INTRA:                  -1.378
REMARK UNBOUND:                -1.373
REMARK SMILES CC(C)(C)OC(=O)NN/C(=C/c1ccccc1)NCc1ccco1
REMARK SMILES IDX 9 1 8 3 6 4 7 5 5 7 2 8 1 9 3 10 4 11 10 12 11 13 18 14
REMARK SMILES IDX 19 16 20 17 21 18 24 19 22 20 23 21 12 22 13 23 17 24 14 25
REMARK SMILES IDX 16 26 15 27
REMARK H PARENT 9 2 8 6 18 15
ROOT
ATOM      1  N   UNL     1      50.916  51.931  17.859  1.00  0.00    -0.281 N 
ATOM      2  H   UNL     1      51.167  52.214  16.909  1.00  0.00    +0.190 HD
ENDROOT
BRANCH   1   3
ATOM      3  N   UNL     1      50.003  50.870  17.868  1.00  0.00    -0.233 N 
ATOM      4  C   UNL     1      48.959  50.852  16.977  1.00  0.00    +0.426 C 
ATOM      5  O   UNL     1      48.608  51.775  16.257  1.00  0.00    -0.223 OA
ATOM      6  H   UNL     1      50.264  50.025  18.361  1.00  0.00    +0.195 HD
BRANCH   4   7
ATOM      7  O   UNL     1      48.370  49.631  17.036  1.00  0.00    -0.443 OA
BRANCH   7   8
ATOM      8  C   UNL     1      48.512  48.684  15.946  1.00  0.00    +0.106 C 
ATOM      9  C   UNL     1      47.195  48.795  15.161  1.00  0.00    +0.056 C 
ATOM     10  C   UNL     1      49.669  49.066  15.016  1.00  0.00    +0.056 C 
ATOM     11  C   UNL     1      48.652  47.251  16.472  1.00  0.00    +0.056 C 
ENDBRANCH   7   8
ENDBRANCH   4   7
ENDBRANCH   1   3
BRANCH   1  12
ATOM     12  C   UNL     1      50.801  53.009  18.725  1.00  0.00    +0.119 C 
ATOM     13  C   UNL     1      51.901  53.480  19.358  1.00  0.00    +0.054 C 
BRANCH  12  14
ATOM     14  N   UNL     1      49.567  53.611  18.927  1.00  0.00    -0.363 N 
ATOM     15  H   UNL     1      49.311  53.643  19.909  1.00  0.00    +0.162 HD
BRANCH  14  16
ATOM     16  C   UNL     1      49.045  54.742  18.172  1.00  0.00    +0.190 C 
BRANCH  16  17
ATOM     17  C   UNL     1      48.650  55.914  19.004  1.00  0.00    +0.122 A 
ATOM     18  C   UNL     1      48.605  56.139  20.364  1.00  0.00    +0.047 A 
ATOM     19  O   UNL     1      48.202  57.016  18.333  1.00  0.00    -0.467 OA
ATOM     20  C   UNL     1      48.118  57.458  20.533  1.00  0.00    +0.042 A 
ATOM     21  C   UNL     1      47.889  57.948  19.269  1.00  0.00    +0.195 A 
ENDBRANCH  16  17
ENDBRANCH  14  16
ENDBRANCH  12  14
BRANCH  13  22
ATOM     22  C   UNL     1      51.944  54.607  20.294  1.00  0.00    -0.022 A 
ATOM     23  C   UNL     1      51.640  54.419  21.645  1.00  0.00    +0.008 A 
ATOM     24  C   UNL     1      52.294  55.881  19.833  1.00  0.00    +0.008 A 
ATOM     25  C   UNL     1      51.695  55.495  22.533  1.00  0.00    +0.001 A 
ATOM     26  C   UNL     1      52.343  56.957  20.720  1.00  0.00    +0.001 A 
ATOM     27  C   UNL     1      52.053  56.761  22.071  1.00  0.00    +0.000 A 
ENDBRANCH  13  22
ENDBRANCH   1  12
TORSDOF 8
ENDMDL
