MODEL 1
REMARK VINA RESULT:    -8.694      0.000      0.000
REMARK INTER + INTRA:         -13.246
REMARK INTER:                 -11.998
REMARK INTRA:                  -1.248
REMARK UNBOUND:                -1.248
REMARK SMILES NC(=O)C[C@@H]([NH3+])c1ccc(-c2ccccc2OC(F)(F)F)o1
REMARK SMILES IDX 10 1 9 2 8 3 7 4 22 5 11 6 13 7 14 8 12 9 15 10 16 11 17 12
REMARK SMILES IDX 18 13 19 14 20 15 21 16 5 17 4 18 2 19 3 20 1 21 6 24
REMARK H PARENT 1 22 1 23 6 25 6 26 6 27
ROOT
ATOM      1  C   UNL     1      50.769  54.913  20.344  1.00  0.00    +0.138 A 
ATOM      2  C   UNL     1      51.883  54.752  19.543  1.00  0.00    +0.051 A 
ATOM      3  C   UNL     1      52.284  53.396  19.646  1.00  0.00    +0.053 A 
ATOM      4  C   UNL     1      51.384  52.792  20.497  1.00  0.00    +0.162 A 
ATOM      5  O   UNL     1      50.488  53.716  20.950  1.00  0.00    -0.455 OA
ENDROOT
BRANCH   1   6
ATOM      6  C   UNL     1      49.867  56.024  20.662  1.00  0.00    +0.060 A 
ATOM      7  C   UNL     1      47.701  57.125  20.357  1.00  0.00    +0.001 A 
ATOM      8  C   UNL     1      48.057  58.113  21.268  1.00  0.00    +0.004 A 
ATOM      9  C   UNL     1      48.595  56.088  20.064  1.00  0.00    +0.016 A 
ATOM     10  C   UNL     1      49.310  58.074  21.875  1.00  0.00    +0.047 A 
ATOM     11  C   UNL     1      50.217  57.055  21.555  1.00  0.00    +0.140 A 
BRANCH  11  12
ATOM     12  O   UNL     1      51.424  57.043  22.206  1.00  0.00    -0.405 OA
BRANCH  12  13
ATOM     13  C   UNL     1      52.383  57.860  21.542  1.00  0.00    +0.573 C 
ATOM     14  F   UNL     1      52.027  58.080  20.256  1.00  0.00    -0.132 F 
ATOM     15  F   UNL     1      52.548  59.037  22.173  1.00  0.00    -0.132 F 
ATOM     16  F   UNL     1      53.563  57.205  21.541  1.00  0.00    -0.132 F 
ENDBRANCH  12  13
ENDBRANCH  11  12
ENDBRANCH   1   6
BRANCH   4  17
ATOM     17  C   UNL     1      51.204  51.422  21.050  1.00  0.00    +0.257 C 
BRANCH  17  18
ATOM     18  C   UNL     1      51.096  50.342  19.967  1.00  0.00    +0.173 C 
BRANCH  18  19
ATOM     19  C   UNL     1      52.393  49.584  19.880  1.00  0.00    +0.223 C 
ATOM     20  O   UNL     1      53.411  50.113  19.438  1.00  0.00    -0.275 OA
ATOM     21  N   UNL     1      52.358  48.286  20.267  1.00  0.00    -0.369 N 
ATOM     22  H   UNL     1      53.205  47.733  20.160  1.00  0.00    +0.159 HD
ATOM     23  H   UNL     1      51.503  47.762  20.425  1.00  0.00    +0.159 HD
ENDBRANCH  18  19
ENDBRANCH  17  18
BRANCH  17  24
ATOM     24  N   UNL     1      52.318  51.128  21.999  1.00  0.00    -0.348 N 
ATOM     25  H   UNL     1      52.337  50.108  22.197  1.00  0.00    +0.345 HD
ATOM     26  H   UNL     1      52.166  51.622  22.887  1.00  0.00    +0.345 HD
ATOM     27  H   UNL     1      53.236  51.403  21.634  1.00  0.00    +0.345 HD
ENDBRANCH  17  24
ENDBRANCH   4  17
TORSDOF 7
ENDMDL
MODEL 2
REMARK VINA RESULT:    -7.845      1.989      2.413
REMARK INTER + INTRA:         -12.073
REMARK INTER:                 -11.797
REMARK INTRA:                  -0.276
REMARK UNBOUND:                -1.248
REMARK SMILES NC(=O)C[C@@H]([NH3+])c1ccc(-c2ccccc2OC(F)(F)F)o1
REMARK SMILES IDX 10 1 9 2 8 3 7 4 22 5 11 6 13 7 14 8 12 9 15 10 16 11 17 12
REMARK SMILES IDX 18 13 19 14 20 15 21 16 5 17 4 18 2 19 3 20 1 21 6 24
REMARK H PARENT 1 22 1 23 6 25 6 26 6 27
ROOT
ATOM      1  C   UNL     1      49.154  54.384  18.972  1.00  0.00    +0.138 A 
ATOM      2  C   UNL     1      48.353  53.883  17.965  1.00  0.00    +0.051 A 
ATOM      3  C   UNL     1      48.941  52.672  17.521  1.00  0.00    +0.053 A 
ATOM      4  C   UNL     1      50.069  52.487  18.291  1.00  0.00    +0.162 A 
ATOM      5  O   UNL     1      50.222  53.541  19.145  1.00  0.00    -0.455 OA
ENDROOT
BRANCH   1   6
ATOM      6  C   UNL     1      49.110  55.555  19.853  1.00  0.00    +0.060 A 
ATOM      7  C   UNL     1      47.889  57.501  20.700  1.00  0.00    +0.001 A 
ATOM      8  C   UNL     1      48.936  57.803  21.563  1.00  0.00    +0.004 A 
ATOM      9  C   UNL     1      47.973  56.384  19.860  1.00  0.00    +0.016 A 
ATOM     10  C   UNL     1      50.074  56.999  21.577  1.00  0.00    +0.047 A 
ATOM     11  C   UNL     1      50.171  55.902  20.711  1.00  0.00    +0.140 A 
BRANCH  11  12
ATOM     12  O   UNL     1      51.297  55.122  20.788  1.00  0.00    -0.405 OA
BRANCH  12  13
ATOM     13  C   UNL     1      52.369  55.678  20.031  1.00  0.00    +0.573 C 
ATOM     14  F   UNL     1      51.904  56.393  18.983  1.00  0.00    -0.132 F 
ATOM     15  F   UNL     1      53.159  56.455  20.794  1.00  0.00    -0.132 F 
ATOM     16  F   UNL     1      53.109  54.660  19.545  1.00  0.00    -0.132 F 
ENDBRANCH  12  13
ENDBRANCH  11  12
ENDBRANCH   1   6
BRANCH   4  17
ATOM     17  C   UNL     1      51.145  51.461  18.366  1.00  0.00    +0.257 C 
BRANCH  17  18
ATOM     18  C   UNL     1      50.930  50.442  19.491  1.00  0.00    +0.173 C 
BRANCH  18  19
ATOM     19  C   UNL     1      52.253  50.111  20.130  1.00  0.00    +0.223 C 
ATOM     20  O   UNL     1      52.825  50.917  20.861  1.00  0.00    -0.275 OA
ATOM     21  N   UNL     1      52.789  48.907  19.815  1.00  0.00    -0.369 N 
ATOM     22  H   UNL     1      53.710  48.683  20.183  1.00  0.00    +0.159 HD
ATOM     23  H   UNL     1      52.459  48.319  19.056  1.00  0.00    +0.159 HD
ENDBRANCH  18  19
ENDBRANCH  17  18
BRANCH  17  24
ATOM     24  N   UNL     1      51.270  50.787  17.040  1.00  0.00    -0.348 N 
ATOM     25  H   UNL     1      51.780  49.890  17.161  1.00  0.00    +0.345 HD
ATOM     26  H   UNL     1      51.809  51.376  16.394  1.00  0.00    +0.345 HD
ATOM     27  H   UNL     1      50.362  50.587  16.607  1.00  0.00    +0.345 HD
ENDBRANCH  17  24
ENDBRANCH   4  17
TORSDOF 7
ENDMDL
MODEL 3
REMARK VINA RESULT:    -7.385      4.584      6.234
REMARK INTER + INTRA:         -11.439
REMARK INTER:                 -10.699
REMARK INTRA:                  -0.739
REMARK UNBOUND:                -1.248
REMARK SMILES NC(=O)C[C@@H]([NH3+])c1ccc(-c2ccccc2OC(F)(F)F)o1
REMARK SMILES IDX 10 1 9 2 8 3 7 4 22 5 11 6 13 7 14 8 12 9 15 10 16 11 17 12
REMARK SMILES IDX 18 13 19 14 20 15 21 16 5 17 4 18 2 19 3 20 1 21 6 24
REMARK H PARENT 1 22 1 23 6 25 6 26 6 27
ROOT
ATOM      1  C   UNL     1      48.490  57.761  19.652  1.00  0.00    +0.138 A 
ATOM      2  C   UNL     1      48.127  58.249  20.892  1.00  0.00    +0.051 A 
ATOM      3  C   UNL     1      49.141  57.871  21.808  1.00  0.00    +0.053 A 
ATOM      4  C   UNL     1      50.082  57.180  21.076  1.00  0.00    +0.162 A 
ATOM      5  O   UNL     1      49.674  57.079  19.777  1.00  0.00    -0.455 OA
ENDROOT
BRANCH   1   6
ATOM      6  C   UNL     1      47.920  57.817  18.303  1.00  0.00    +0.060 A 
ATOM      7  C   UNL     1      47.709  56.838  16.068  1.00  0.00    +0.001 A 
ATOM      8  C   UNL     1      46.816  57.837  15.697  1.00  0.00    +0.004 A 
ATOM      9  C   UNL     1      48.248  56.825  17.360  1.00  0.00    +0.016 A 
ATOM     10  C   UNL     1      46.474  58.832  16.610  1.00  0.00    +0.047 A 
ATOM     11  C   UNL     1      47.041  58.838  17.891  1.00  0.00    +0.140 A 
BRANCH  11  12
ATOM     12  O   UNL     1      46.644  59.819  18.763  1.00  0.00    -0.405 OA
BRANCH  12  13
ATOM     13  C   UNL     1      47.239  61.073  18.442  1.00  0.00    +0.573 C 
ATOM     14  F   UNL     1      48.535  60.920  18.089  1.00  0.00    -0.132 F 
ATOM     15  F   UNL     1      46.571  61.697  17.455  1.00  0.00    -0.132 F 
ATOM     16  F   UNL     1      47.198  61.850  19.545  1.00  0.00    -0.132 F 
ENDBRANCH  12  13
ENDBRANCH  11  12
ENDBRANCH   1   6
BRANCH   4  17
ATOM     17  C   UNL     1      51.373  56.502  21.379  1.00  0.00    +0.257 C 
BRANCH  17  18
ATOM     18  C   UNL     1      52.584  57.203  20.755  1.00  0.00    +0.173 C 
BRANCH  18  19
ATOM     19  C   UNL     1      53.344  57.943  21.823  1.00  0.00    +0.223 C 
ATOM     20  O   UNL     1      54.359  57.467  22.328  1.00  0.00    -0.275 OA
ATOM     21  N   UNL     1      52.820  59.127  22.224  1.00  0.00    -0.369 N 
ATOM     22  H   UNL     1      53.278  59.619  22.987  1.00  0.00    +0.159 HD
ATOM     23  H   UNL     1      51.882  59.440  21.993  1.00  0.00    +0.159 HD
ENDBRANCH  18  19
ENDBRANCH  17  18
BRANCH  17  24
ATOM     24  N   UNL     1      51.521  56.376  22.859  1.00  0.00    -0.348 N 
ATOM     25  H   UNL     1      51.332  55.393  23.137  1.00  0.00    +0.345 HD
ATOM     26  H   UNL     1      50.840  56.979  23.335  1.00  0.00    +0.345 HD
ATOM     27  H   UNL     1      52.458  56.631  23.189  1.00  0.00    +0.345 HD
ENDBRANCH  17  24
ENDBRANCH   4  17
TORSDOF 7
ENDMDL
MODEL 4
REMARK VINA RESULT:    -7.262      2.015      2.285
REMARK INTER + INTRA:         -11.269
REMARK INTER:                 -10.297
REMARK INTRA:                  -0.972
REMARK UNBOUND:                -1.248
REMARK SMILES NC(=O)C[C@@H]([NH3+])c1ccc(-c2ccccc2OC(F)(F)F)o1
REMARK SMILES IDX 10 1 9 2 8 3 7 4 22 5 11 6 13 7 14 8 12 9 15 10 16 11 17 12
REMARK SMILES IDX 18 13 19 14 20 15 21 16 5 17 4 18 2 19 3 20 1 21 6 24
REMARK H PARENT 1 22 1 23 6 25 6 26 6 27
ROOT
ATOM      1  C   UNL     1      50.899  54.515  19.717  1.00  0.00    +0.138 A 
ATOM      2  C   UNL     1      52.156  54.391  19.158  1.00  0.00    +0.051 A 
ATOM      3  C   UNL     1      52.317  53.034  18.779  1.00  0.00    +0.053 A 
ATOM      4  C   UNL     1      51.142  52.398  19.116  1.00  0.00    +0.162 A 
ATOM      5  O   UNL     1      50.295  53.284  19.717  1.00  0.00    -0.455 OA
ENDROOT
BRANCH   1   6
ATOM      6  C   UNL     1      50.111  55.619  20.273  1.00  0.00    +0.060 A 
ATOM      7  C   UNL     1      47.997  56.849  20.373  1.00  0.00    +0.001 A 
ATOM      8  C   UNL     1      48.518  57.701  21.340  1.00  0.00    +0.004 A 
ATOM      9  C   UNL     1      48.783  55.815  19.852  1.00  0.00    +0.016 A 
ATOM     10  C   UNL     1      49.830  57.529  21.776  1.00  0.00    +0.047 A 
ATOM     11  C   UNL     1      50.628  56.516  21.228  1.00  0.00    +0.140 A 
BRANCH  11  12
ATOM     12  O   UNL     1      51.901  56.368  21.716  1.00  0.00    -0.405 OA
BRANCH  12  13
ATOM     13  C   UNL     1      52.775  57.370  21.205  1.00  0.00    +0.573 C 
ATOM     14  F   UNL     1      53.894  56.819  20.682  1.00  0.00    -0.132 F 
ATOM     15  F   UNL     1      52.166  58.126  20.273  1.00  0.00    -0.132 F 
ATOM     16  F   UNL     1      53.144  58.167  22.229  1.00  0.00    -0.132 F 
ENDBRANCH  12  13
ENDBRANCH  11  12
ENDBRANCH   1   6
BRANCH   4  17
ATOM     17  C   UNL     1      50.624  51.006  19.018  1.00  0.00    +0.257 C 
BRANCH  17  18
ATOM     18  C   UNL     1      49.637  50.808  17.862  1.00  0.00    +0.173 C 
BRANCH  18  19
ATOM     19  C   UNL     1      48.661  49.717  18.215  1.00  0.00    +0.223 C 
ATOM     20  O   UNL     1      48.985  48.786  18.948  1.00  0.00    -0.275 OA
ATOM     21  N   UNL     1      47.435  49.798  17.641  1.00  0.00    -0.369 N 
ATOM     22  H   UNL     1      46.777  49.043  17.813  1.00  0.00    +0.159 HD
ATOM     23  H   UNL     1      47.208  50.420  16.871  1.00  0.00    +0.159 HD
ENDBRANCH  18  19
ENDBRANCH  17  18
BRANCH  17  24
ATOM     24  N   UNL     1      51.776  50.063  18.916  1.00  0.00    -0.348 N 
ATOM     25  H   UNL     1      52.332  50.297  18.070  1.00  0.00    +0.345 HD
ATOM     26  H   UNL     1      51.436  49.099  18.817  1.00  0.00    +0.345 HD
ATOM     27  H   UNL     1      52.396  50.101  19.731  1.00  0.00    +0.345 HD
ENDBRANCH  17  24
ENDBRANCH   4  17
TORSDOF 7
ENDMDL
MODEL 5
REMARK VINA RESULT:    -7.039      2.958      3.922
REMARK INTER + INTRA:         -10.962
REMARK INTER:                  -9.821
REMARK INTRA:                  -1.140
REMARK UNBOUND:                -1.248
REMARK SMILES NC(=O)C[C@@H]([NH3+])c1ccc(-c2ccccc2OC(F)(F)F)o1
REMARK SMILES IDX 10 1 9 2 8 3 7 4 22 5 11 6 13 7 14 8 12 9 15 10 16 11 17 12
REMARK SMILES IDX 18 13 19 14 20 15 21 16 5 17 4 18 2 19 3 20 1 21 6 24
REMARK H PARENT 1 22 1 23 6 25 6 26 6 27
ROOT
ATOM      1  C   UNL     1      51.606  53.316  19.830  1.00  0.00    +0.138 A 
ATOM      2  C   UNL     1      52.570  52.915  18.925  1.00  0.00    +0.051 A 
ATOM      3  C   UNL     1      52.222  51.611  18.489  1.00  0.00    +0.053 A 
ATOM      4  C   UNL     1      51.052  51.286  19.141  1.00  0.00    +0.162 A 
ATOM      5  O   UNL     1      50.696  52.301  19.982  1.00  0.00    -0.455 OA
ENDROOT
BRANCH   1   6
ATOM      6  C   UNL     1      51.355  54.529  20.614  1.00  0.00    +0.060 A 
ATOM      7  C   UNL     1      51.582  55.751  22.724  1.00  0.00    +0.001 A 
ATOM      8  C   UNL     1      50.947  56.857  22.171  1.00  0.00    +0.004 A 
ATOM      9  C   UNL     1      51.790  54.603  21.950  1.00  0.00    +0.016 A 
ATOM     10  C   UNL     1      50.506  56.811  20.850  1.00  0.00    +0.047 A 
ATOM     11  C   UNL     1      50.683  55.649  20.088  1.00  0.00    +0.140 A 
BRANCH  11  12
ATOM     12  O   UNL     1      50.262  55.668  18.783  1.00  0.00    -0.405 OA
BRANCH  12  13
ATOM     13  C   UNL     1      48.884  55.324  18.675  1.00  0.00    +0.573 C 
ATOM     14  F   UNL     1      48.679  54.449  17.665  1.00  0.00    -0.132 F 
ATOM     15  F   UNL     1      48.415  54.806  19.825  1.00  0.00    -0.132 F 
ATOM     16  F   UNL     1      48.192  56.449  18.398  1.00  0.00    -0.132 F 
ENDBRANCH  12  13
ENDBRANCH  11  12
ENDBRANCH   1   6
BRANCH   4  17
ATOM     17  C   UNL     1      50.148  50.104  19.171  1.00  0.00    +0.257 C 
BRANCH  17  18
ATOM     18  C   UNL     1      49.411  49.873  17.847  1.00  0.00    +0.173 C 
BRANCH  18  19
ATOM     19  C   UNL     1      48.590  48.615  17.940  1.00  0.00    +0.223 C 
ATOM     20  O   UNL     1      47.728  48.480  18.806  1.00  0.00    -0.275 OA
ATOM     21  N   UNL     1      48.889  47.634  17.053  1.00  0.00    -0.369 N 
ATOM     22  H   UNL     1      48.393  46.751  17.133  1.00  0.00    +0.159 HD
ATOM     23  H   UNL     1      49.727  47.623  16.479  1.00  0.00    +0.159 HD
ENDBRANCH  18  19
ENDBRANCH  17  18
BRANCH  17  24
ATOM     24  N   UNL     1      50.933  48.900  19.572  1.00  0.00    -0.348 N 
ATOM     25  H   UNL     1      50.425  48.046  19.267  1.00  0.00    +0.345 HD
ATOM     26  H   UNL     1      51.030  48.865  20.594  1.00  0.00    +0.345 HD
ATOM     27  H   UNL     1      51.873  48.881  19.162  1.00  0.00    +0.345 HD
ENDBRANCH  17  24
ENDBRANCH   4  17
TORSDOF 7
ENDMDL
