MODEL 1
REMARK VINA RESULT:    -6.556      0.000      0.000
REMARK INTER + INTRA:         -10.872
REMARK INTER:                  -9.814
REMARK INTRA:                  -1.058
REMARK UNBOUND:                -1.058
REMARK SMILES COCCCC[NH2+][C@H](C)c1ccc(S(N)(=O)=O)cc1
REMARK SMILES IDX 7 1 8 4 9 5 10 6 11 7 19 8 12 9 18 10 13 11 14 12 16 13
REMARK SMILES IDX 17 14 15 15 6 18 5 19 4 20 3 21 2 22 1 23
REMARK H PARENT 7 2 7 3 15 16 15 17
ROOT
ATOM      1  N   UNL     1      50.804  57.525  22.166  1.00  0.00    -0.340 N 
ATOM      2  H   UNL     1      50.930  58.434  22.634  1.00  0.00    +0.346 HD
ATOM      3  H   UNL     1      50.237  56.970  22.820  1.00  0.00    +0.346 HD
ENDROOT
BRANCH   1   4
ATOM      4  C   UNL     1      52.168  56.902  22.048  1.00  0.00    +0.210 C 
ATOM      5  C   UNL     1      53.087  57.809  21.231  1.00  0.00    +0.081 C 
BRANCH   4   6
ATOM      6  C   UNL     1      52.028  55.505  21.470  1.00  0.00    +0.009 A 
ATOM      7  C   UNL     1      52.432  55.264  20.143  1.00  0.00    +0.011 A 
ATOM      8  C   UNL     1      51.575  54.421  22.244  1.00  0.00    +0.011 A 
ATOM      9  C   UNL     1      52.383  53.977  19.604  1.00  0.00    +0.022 A 
ATOM     10  C   UNL     1      51.524  53.130  21.706  1.00  0.00    +0.022 A 
ATOM     11  C   UNL     1      51.925  52.916  20.388  1.00  0.00    +0.082 A 
BRANCH  11  12
ATOM     12  S   UNL     1      51.952  51.268  19.719  1.00  0.00    +0.238 S 
ATOM     13  O   UNL     1      52.745  51.297  18.513  1.00  0.00    -0.207 OA
ATOM     14  O   UNL     1      50.602  50.764  19.755  1.00  0.00    -0.207 OA
BRANCH  12  15
ATOM     15  N   UNL     1      52.864  50.442  20.859  1.00  0.00    -0.225 NA
ATOM     16  H   UNL     1      53.405  49.662  20.493  1.00  0.00    +0.137 HD
ATOM     17  H   UNL     1      52.266  50.165  21.640  1.00  0.00    +0.137 HD
ENDBRANCH  12  15
ENDBRANCH  11  12
ENDBRANCH   4   6
ENDBRANCH   1   4
BRANCH   1  18
ATOM     18  C   UNL     1      50.059  57.744  20.889  1.00  0.00    +0.261 C 
BRANCH  18  19
ATOM     19  C   UNL     1      48.565  57.624  21.170  1.00  0.00    +0.064 C 
BRANCH  19  20
ATOM     20  C   UNL     1      47.831  56.741  20.160  1.00  0.00    +0.034 C 
BRANCH  20  21
ATOM     21  C   UNL     1      48.761  56.023  19.182  1.00  0.00    +0.160 C 
BRANCH  21  22
ATOM     22  O   UNL     1      48.875  54.643  19.502  1.00  0.00    -0.385 OA
ATOM     23  C   UNL     1      48.841  53.781  18.372  1.00  0.00    +0.194 C 
ENDBRANCH  21  22
ENDBRANCH  20  21
ENDBRANCH  19  20
ENDBRANCH  18  19
ENDBRANCH   1  18
TORSDOF 9
ENDMDL
MODEL 2
REMARK VINA RESULT:    -6.205      4.519      6.652
REMARK INTER + INTRA:         -10.347
REMARK INTER:                  -9.695
REMARK INTRA:                  -0.652
REMARK UNBOUND:                -1.058
REMARK SMILES COCCCC[NH2+][C@H](C)c1ccc(S(N)(=O)=O)cc1
REMARK SMILES IDX 7 1 8 4 9 5 10 6 11 7 19 8 12 9 18 10 13 11 14 12 16 13
REMARK SMILES IDX 17 14 15 15 6 18 5 19 4 20 3 21 2 22 1 23
REMARK H PARENT 7 2 7 3 15 16 15 17
ROOT
ATOM      1  N   UNL     1      50.497  52.190  18.305  1.00  0.00    -0.340 N 
ATOM      2  H   UNL     1      51.344  52.150  17.719  1.00  0.00    +0.346 HD
ATOM      3  H   UNL     1      50.478  51.287  18.799  1.00  0.00    +0.346 HD
ENDROOT
BRANCH   1   4
ATOM      4  C   UNL     1      49.321  52.263  17.371  1.00  0.00    +0.210 C 
ATOM      5  C   UNL     1      48.645  53.629  17.490  1.00  0.00    +0.081 C 
BRANCH   4   6
ATOM      6  C   UNL     1      48.388  51.099  17.654  1.00  0.00    +0.009 A 
ATOM      7  C   UNL     1      47.089  51.109  17.112  1.00  0.00    +0.011 A 
ATOM      8  C   UNL     1      48.805  49.971  18.383  1.00  0.00    +0.011 A 
ATOM      9  C   UNL     1      46.230  50.023  17.294  1.00  0.00    +0.022 A 
ATOM     10  C   UNL     1      47.947  48.881  18.567  1.00  0.00    +0.022 A 
ATOM     11  C   UNL     1      46.663  48.915  18.024  1.00  0.00    +0.082 A 
BRANCH  11  12
ATOM     12  S   UNL     1      45.594  47.502  18.172  1.00  0.00    +0.238 S 
ATOM     13  O   UNL     1      45.450  47.205  19.578  1.00  0.00    -0.207 OA
ATOM     14  O   UNL     1      46.032  46.524  17.208  1.00  0.00    -0.207 OA
BRANCH  12  15
ATOM     15  N   UNL     1      44.118  48.124  17.672  1.00  0.00    -0.225 NA
ATOM     16  H   UNL     1      43.441  47.429  17.366  1.00  0.00    +0.137 HD
ATOM     17  H   UNL     1      44.274  48.848  16.967  1.00  0.00    +0.137 HD
ENDBRANCH  12  15
ENDBRANCH  11  12
ENDBRANCH   4   6
ENDBRANCH   1   4
BRANCH   1  18
ATOM     18  C   UNL     1      50.646  53.312  19.281  1.00  0.00    +0.261 C 
BRANCH  18  19
ATOM     19  C   UNL     1      50.568  52.744  20.693  1.00  0.00    +0.064 C 
BRANCH  19  20
ATOM     20  C   UNL     1      51.597  53.354  21.646  1.00  0.00    +0.034 C 
BRANCH  20  21
ATOM     21  C   UNL     1      51.384  54.845  21.906  1.00  0.00    +0.160 C 
BRANCH  21  22
ATOM     22  O   UNL     1      52.517  55.603  21.505  1.00  0.00    -0.385 OA
ATOM     23  C   UNL     1      52.269  56.488  20.420  1.00  0.00    +0.194 C 
ENDBRANCH  21  22
ENDBRANCH  20  21
ENDBRANCH  19  20
ENDBRANCH  18  19
ENDBRANCH   1  18
TORSDOF 9
ENDMDL
MODEL 3
REMARK VINA RESULT:    -6.154      3.149      6.086
REMARK INTER + INTRA:         -10.271
REMARK INTER:                  -9.258
REMARK INTRA:                  -1.013
REMARK UNBOUND:                -1.058
REMARK SMILES COCCCC[NH2+][C@H](C)c1ccc(S(N)(=O)=O)cc1
REMARK SMILES IDX 7 1 8 4 9 5 10 6 11 7 19 8 12 9 18 10 13 11 14 12 16 13
REMARK SMILES IDX 17 14 15 15 6 18 5 19 4 20 3 21 2 22 1 23
REMARK H PARENT 7 2 7 3 15 16 15 17
ROOT
ATOM      1  N   UNL     1      50.124  51.830  17.358  1.00  0.00    -0.340 N 
ATOM      2  H   UNL     1      50.934  51.857  17.994  1.00  0.00    +0.346 HD
ATOM      3  H   UNL     1      50.469  52.233  16.477  1.00  0.00    +0.346 HD
ENDROOT
BRANCH   1   4
ATOM      4  C   UNL     1      49.081  52.746  17.940  1.00  0.00    +0.210 C 
ATOM      5  C   UNL     1      48.204  53.312  16.824  1.00  0.00    +0.081 C 
BRANCH   4   6
ATOM      6  C   UNL     1      49.767  53.814  18.773  1.00  0.00    +0.009 A 
ATOM      7  C   UNL     1      48.994  54.628  19.622  1.00  0.00    +0.011 A 
ATOM      8  C   UNL     1      51.166  53.969  18.780  1.00  0.00    +0.011 A 
ATOM      9  C   UNL     1      49.600  55.572  20.453  1.00  0.00    +0.022 A 
ATOM     10  C   UNL     1      51.775  54.915  19.611  1.00  0.00    +0.022 A 
ATOM     11  C   UNL     1      50.989  55.713  20.441  1.00  0.00    +0.082 A 
BRANCH  11  12
ATOM     12  S   UNL     1      51.755  56.855  21.569  1.00  0.00    +0.238 S 
ATOM     13  O   UNL     1      52.396  57.884  20.785  1.00  0.00    -0.207 OA
ATOM     14  O   UNL     1      52.456  56.079  22.562  1.00  0.00    -0.207 OA
BRANCH  12  15
ATOM     15  N   UNL     1      50.426  57.578  22.294  1.00  0.00    -0.225 NA
ATOM     16  H   UNL     1      49.727  56.929  22.652  1.00  0.00    +0.137 HD
ATOM     17  H   UNL     1      50.022  58.267  21.656  1.00  0.00    +0.137 HD
ENDBRANCH  12  15
ENDBRANCH  11  12
ENDBRANCH   4   6
ENDBRANCH   1   4
BRANCH   1  18
ATOM     18  C   UNL     1      49.722  50.405  17.156  1.00  0.00    +0.261 C 
BRANCH  18  19
ATOM     19  C   UNL     1      48.933  49.943  18.376  1.00  0.00    +0.064 C 
BRANCH  19  20
ATOM     20  C   UNL     1      49.680  48.910  19.222  1.00  0.00    +0.034 C 
BRANCH  20  21
ATOM     21  C   UNL     1      50.943  49.458  19.885  1.00  0.00    +0.160 C 
BRANCH  21  22
ATOM     22  O   UNL     1      50.721  50.758  20.415  1.00  0.00    -0.385 OA
ATOM     23  C   UNL     1      51.803  51.263  21.185  1.00  0.00    +0.194 C 
ENDBRANCH  21  22
ENDBRANCH  20  21
ENDBRANCH  19  20
ENDBRANCH  18  19
ENDBRANCH   1  18
TORSDOF 9
ENDMDL
MODEL 4
REMARK VINA RESULT:    -6.088      3.506      6.171
REMARK INTER + INTRA:         -10.171
REMARK INTER:                  -9.308
REMARK INTRA:                  -0.863
REMARK UNBOUND:                -1.058
REMARK SMILES COCCCC[NH2+][C@H](C)c1ccc(S(N)(=O)=O)cc1
REMARK SMILES IDX 7 1 8 4 9 5 10 6 11 7 19 8 12 9 18 10 13 11 14 12 16 13
REMARK SMILES IDX 17 14 15 15 6 18 5 19 4 20 3 21 2 22 1 23
REMARK H PARENT 7 2 7 3 15 16 15 17
ROOT
ATOM      1  N   UNL     1      50.169  49.824  18.651  1.00  0.00    -0.340 N 
ATOM      2  H   UNL     1      50.789  49.491  17.899  1.00  0.00    +0.346 HD
ATOM      3  H   UNL     1      49.879  50.766  18.355  1.00  0.00    +0.346 HD
ENDROOT
BRANCH   1   4
ATOM      4  C   UNL     1      51.009  49.938  19.894  1.00  0.00    +0.210 C 
ATOM      5  C   UNL     1      50.466  49.007  20.977  1.00  0.00    +0.081 C 
BRANCH   4   6
ATOM      6  C   UNL     1      51.069  51.393  20.321  1.00  0.00    +0.009 A 
ATOM      7  C   UNL     1      51.467  51.710  21.634  1.00  0.00    +0.011 A 
ATOM      8  C   UNL     1      50.811  52.445  19.423  1.00  0.00    +0.011 A 
ATOM      9  C   UNL     1      51.602  53.040  22.038  1.00  0.00    +0.022 A 
ATOM     10  C   UNL     1      50.944  53.778  19.825  1.00  0.00    +0.022 A 
ATOM     11  C   UNL     1      51.336  54.068  21.132  1.00  0.00    +0.082 A 
BRANCH  11  12
ATOM     12  S   UNL     1      51.598  55.755  21.632  1.00  0.00    +0.238 S 
ATOM     13  O   UNL     1      50.331  56.440  21.546  1.00  0.00    -0.207 OA
ATOM     14  O   UNL     1      52.787  56.224  20.965  1.00  0.00    -0.207 OA
BRANCH  12  15
ATOM     15  N   UNL     1      51.930  55.588  23.268  1.00  0.00    -0.225 NA
ATOM     16  H   UNL     1      52.455  56.357  23.679  1.00  0.00    +0.137 HD
ATOM     17  H   UNL     1      52.375  54.683  23.436  1.00  0.00    +0.137 HD
ENDBRANCH  12  15
ENDBRANCH  11  12
ENDBRANCH   4   6
ENDBRANCH   1   4
BRANCH   1  18
ATOM     18  C   UNL     1      48.984  48.917  18.728  1.00  0.00    +0.261 C 
BRANCH  18  19
ATOM     19  C   UNL     1      47.837  49.546  17.945  1.00  0.00    +0.064 C 
BRANCH  19  20
ATOM     20  C   UNL     1      48.219  50.863  17.268  1.00  0.00    +0.034 C 
BRANCH  20  21
ATOM     21  C   UNL     1      48.442  50.736  15.761  1.00  0.00    +0.160 C 
BRANCH  21  22
ATOM     22  O   UNL     1      49.183  49.565  15.449  1.00  0.00    -0.385 OA
ATOM     23  C   UNL     1      50.375  49.810  14.715  1.00  0.00    +0.194 C 
ENDBRANCH  21  22
ENDBRANCH  20  21
ENDBRANCH  19  20
ENDBRANCH  18  19
ENDBRANCH   1  18
TORSDOF 9
ENDMDL
MODEL 5
REMARK VINA RESULT:    -5.975      3.151      5.766
REMARK INTER + INTRA:         -10.002
REMARK INTER:                  -8.845
REMARK INTRA:                  -1.157
REMARK UNBOUND:                -1.058
REMARK SMILES COCCCC[NH2+][C@H](C)c1ccc(S(N)(=O)=O)cc1
REMARK SMILES IDX 7 1 8 4 9 5 10 6 11 7 19 8 12 9 18 10 13 11 14 12 16 13
REMARK SMILES IDX 17 14 15 15 6 18 5 19 4 20 3 21 2 22 1 23
REMARK H PARENT 7 2 7 3 15 16 15 17
ROOT
ATOM      1  N   UNL     1      50.506  49.671  18.535  1.00  0.00    -0.340 N 
ATOM      2  H   UNL     1      51.162  49.309  17.828  1.00  0.00    +0.346 HD
ATOM      3  H   UNL     1      50.302  50.634  18.233  1.00  0.00    +0.346 HD
ENDROOT
BRANCH   1   4
ATOM      4  C   UNL     1      51.250  49.714  19.841  1.00  0.00    +0.210 C 
ATOM      5  C   UNL     1      50.508  48.888  20.891  1.00  0.00    +0.081 C 
BRANCH   4   6
ATOM      6  C   UNL     1      51.459  51.162  20.247  1.00  0.00    +0.009 A 
ATOM      7  C   UNL     1      52.197  52.014  19.404  1.00  0.00    +0.011 A 
ATOM      8  C   UNL     1      50.873  51.702  21.407  1.00  0.00    +0.011 A 
ATOM      9  C   UNL     1      52.348  53.368  19.712  1.00  0.00    +0.022 A 
ATOM     10  C   UNL     1      51.024  53.058  21.718  1.00  0.00    +0.022 A 
ATOM     11  C   UNL     1      51.763  53.882  20.870  1.00  0.00    +0.082 A 
BRANCH  11  12
ATOM     12  S   UNL     1      51.886  55.625  21.204  1.00  0.00    +0.238 S 
ATOM     13  O   UNL     1      52.559  56.240  20.085  1.00  0.00    -0.207 OA
ATOM     14  O   UNL     1      52.338  55.775  22.566  1.00  0.00    -0.207 OA
BRANCH  12  15
ATOM     15  N   UNL     1      50.284  56.114  21.113  1.00  0.00    -0.225 NA
ATOM     16  H   UNL     1      49.873  56.066  20.183  1.00  0.00    +0.137 HD
ATOM     17  H   UNL     1      50.185  57.041  21.532  1.00  0.00    +0.137 HD
ENDBRANCH  12  15
ENDBRANCH  11  12
ENDBRANCH   4   6
ENDBRANCH   1   4
BRANCH   1  18
ATOM     18  C   UNL     1      49.263  48.843  18.502  1.00  0.00    +0.261 C 
BRANCH  18  19
ATOM     19  C   UNL     1      48.104  49.719  18.041  1.00  0.00    +0.064 C 
BRANCH  19  20
ATOM     20  C   UNL     1      48.291  50.271  16.626  1.00  0.00    +0.034 C 
BRANCH  20  21
ATOM     21  C   UNL     1      48.356  51.797  16.567  1.00  0.00    +0.160 C 
BRANCH  21  22
ATOM     22  O   UNL     1      49.354  52.303  17.442  1.00  0.00    -0.385 OA
ATOM     23  C   UNL     1      49.047  53.573  18.001  1.00  0.00    +0.194 C 
ENDBRANCH  21  22
ENDBRANCH  20  21
ENDBRANCH  19  20
ENDBRANCH  18  19
ENDBRANCH   1  18
TORSDOF 9
ENDMDL
