MODEL 1
REMARK VINA RESULT:    -6.297      0.000      0.000
REMARK INTER + INTRA:         -10.179
REMARK INTER:                  -9.427
REMARK INTRA:                  -0.752
REMARK UNBOUND:                -0.752
REMARK SMILES COCCOCCNS(=O)(=O)c1cc(Cl)ccc1N
REMARK SMILES IDX 6 1 5 2 4 3 3 4 2 5 1 6 7 7 8 8 9 10 10 11 11 12 12 13 13 14
REMARK SMILES IDX 18 15 14 16 17 17 16 18 15 19 19 20
REMARK H PARENT 8 9 19 21 19 22
ROOT
ATOM      1  C   UNL     1      50.170  54.063  19.778  1.00  0.00    +0.176 C 
ENDROOT
BRANCH   1   2
ATOM      2  O   UNL     1      50.282  54.754  21.030  1.00  0.00    -0.378 OA
BRANCH   2   3
ATOM      3  C   UNL     1      51.630  54.867  21.502  1.00  0.00    +0.188 C 
BRANCH   3   4
ATOM      4  C   UNL     1      51.958  56.242  22.096  1.00  0.00    +0.188 C 
BRANCH   4   5
ATOM      5  O   UNL     1      53.221  56.739  21.638  1.00  0.00    -0.382 OA
ATOM      6  C   UNL     1      53.347  58.148  21.771  1.00  0.00    +0.195 C 
ENDBRANCH   4   5
ENDBRANCH   3   4
ENDBRANCH   2   3
ENDBRANCH   1   2
BRANCH   1   7
ATOM      7  C   UNL     1      51.557  54.020  19.129  1.00  0.00    +0.127 C 
BRANCH   7   8
ATOM      8  N   UNL     1      51.557  52.990  18.063  1.00  0.00    -0.209 NA
ATOM      9  H   UNL     1      51.994  53.340  17.203  1.00  0.00    +0.141 HD
BRANCH   8  10
ATOM     10  S   UNL     1      52.159  51.468  18.462  1.00  0.00    +0.242 S 
ATOM     11  O   UNL     1      52.702  51.560  19.802  1.00  0.00    -0.207 OA
ATOM     12  O   UNL     1      52.956  50.991  17.353  1.00  0.00    -0.207 OA
BRANCH  10  13
ATOM     13  C   UNL     1      50.681  50.486  18.562  1.00  0.00    +0.106 A 
ATOM     14  C   UNL     1      49.550  50.920  17.856  1.00  0.00    +0.044 A 
ATOM     15  C   UNL     1      50.667  49.293  19.305  1.00  0.00    +0.052 A 
ATOM     16  C   UNL     1      48.367  50.195  17.949  1.00  0.00    +0.042 A 
ATOM     17  C   UNL     1      49.444  48.618  19.427  1.00  0.00    +0.028 A 
ATOM     18  C   UNL     1      48.305  49.052  18.740  1.00  0.00    +0.023 A 
ATOM     19 Cl   UNL     1      46.967  50.728  17.106  1.00  0.00    -0.084 Cl
BRANCH  15  20
ATOM     20  N   UNL     1      51.742  48.870  20.105  1.00  0.00    -0.398 N 
ATOM     21  H   UNL     1      52.629  49.305  19.865  1.00  0.00    +0.156 HD
ATOM     22  H   UNL     1      51.556  48.982  21.110  1.00  0.00    +0.156 HD
ENDBRANCH  15  20
ENDBRANCH  10  13
ENDBRANCH   8  10
ENDBRANCH   7   8
ENDBRANCH   1   7
TORSDOF 9
ENDMDL
MODEL 2
REMARK VINA RESULT:    -6.105      1.878      2.757
REMARK INTER + INTRA:          -9.891
REMARK INTER:                  -9.056
REMARK INTRA:                  -0.835
REMARK UNBOUND:                -0.752
REMARK SMILES COCCOCCNS(=O)(=O)c1cc(Cl)ccc1N
REMARK SMILES IDX 6 1 5 2 4 3 3 4 2 5 1 6 7 7 8 8 9 10 10 11 11 12 12 13 13 14
REMARK SMILES IDX 18 15 14 16 17 17 16 18 15 19 19 20
REMARK H PARENT 8 9 19 21 19 22
ROOT
ATOM      1  C   UNL     1      51.126  53.243  21.846  1.00  0.00    +0.176 C 
ENDROOT
BRANCH   1   2
ATOM      2  O   UNL     1      52.011  54.360  22.014  1.00  0.00    -0.378 OA
BRANCH   2   3
ATOM      3  C   UNL     1      51.633  55.509  21.246  1.00  0.00    +0.188 C 
BRANCH   3   4
ATOM      4  C   UNL     1      50.245  55.389  20.605  1.00  0.00    +0.188 C 
BRANCH   4   5
ATOM      5  O   UNL     1      49.344  56.398  21.077  1.00  0.00    -0.382 OA
ATOM      6  C   UNL     1      50.003  57.466  21.743  1.00  0.00    +0.195 C 
ENDBRANCH   4   5
ENDBRANCH   3   4
ENDBRANCH   2   3
ENDBRANCH   1   2
BRANCH   1   7
ATOM      7  C   UNL     1      51.948  52.052  21.346  1.00  0.00    +0.127 C 
BRANCH   7   8
ATOM      8  N   UNL     1      51.058  50.874  21.218  1.00  0.00    -0.209 NA
ATOM      9  H   UNL     1      50.069  51.140  21.296  1.00  0.00    +0.141 HD
BRANCH   8  10
ATOM     10  S   UNL     1      51.301  49.866  19.890  1.00  0.00    +0.242 S 
ATOM     11  O   UNL     1      51.275  48.502  20.378  1.00  0.00    -0.207 OA
ATOM     12  O   UNL     1      52.420  50.378  19.130  1.00  0.00    -0.207 OA
BRANCH  10  13
ATOM     13  C   UNL     1      49.815  50.112  18.946  1.00  0.00    +0.106 A 
ATOM     14  C   UNL     1      48.825  49.121  19.000  1.00  0.00    +0.044 A 
ATOM     15  C   UNL     1      49.635  51.286  18.194  1.00  0.00    +0.052 A 
ATOM     16  C   UNL     1      47.670  49.266  18.240  1.00  0.00    +0.042 A 
ATOM     17  C   UNL     1      48.489  51.374  17.392  1.00  0.00    +0.028 A 
ATOM     18  C   UNL     1      47.502  50.383  17.427  1.00  0.00    +0.023 A 
ATOM     19 Cl   UNL     1      46.457  48.048  18.281  1.00  0.00    -0.084 Cl
BRANCH  15  20
ATOM     20  N   UNL     1      50.636  52.258  18.030  1.00  0.00    -0.398 N 
ATOM     21  H   UNL     1      51.220  52.390  18.852  1.00  0.00    +0.156 HD
ATOM     22  H   UNL     1      51.225  52.086  17.205  1.00  0.00    +0.156 HD
ENDBRANCH  15  20
ENDBRANCH  10  13
ENDBRANCH   8  10
ENDBRANCH   7   8
ENDBRANCH   1   7
TORSDOF 9
ENDMDL
MODEL 3
REMARK VINA RESULT:    -6.007      3.056      4.532
REMARK INTER + INTRA:          -9.744
REMARK INTER:                  -8.453
REMARK INTRA:                  -1.290
REMARK UNBOUND:                -0.752
REMARK SMILES COCCOCCNS(=O)(=O)c1cc(Cl)ccc1N
REMARK SMILES IDX 6 1 5 2 4 3 3 4 2 5 1 6 7 7 8 8 9 10 10 11 11 12 12 13 13 14
REMARK SMILES IDX 18 15 14 16 17 17 16 18 15 19 19 20
REMARK H PARENT 8 9 19 21 19 22
ROOT
ATOM      1  C   UNL     1      49.148  51.391  17.026  1.00  0.00    +0.176 C 
ENDROOT
BRANCH   1   2
ATOM      2  O   UNL     1      49.599  52.664  17.512  1.00  0.00    -0.378 OA
BRANCH   2   3
ATOM      3  C   UNL     1      48.668  53.302  18.393  1.00  0.00    +0.188 C 
BRANCH   3   4
ATOM      4  C   UNL     1      48.963  54.789  18.626  1.00  0.00    +0.188 C 
BRANCH   4   5
ATOM      5  O   UNL     1      48.377  55.272  19.840  1.00  0.00    -0.382 OA
ATOM      6  C   UNL     1      48.900  56.528  20.251  1.00  0.00    +0.195 C 
ENDBRANCH   4   5
ENDBRANCH   3   4
ENDBRANCH   2   3
ENDBRANCH   1   2
BRANCH   1   7
ATOM      7  C   UNL     1      50.332  50.420  17.056  1.00  0.00    +0.127 C 
BRANCH   7   8
ATOM      8  N   UNL     1      50.768  50.237  18.460  1.00  0.00    -0.209 NA
ATOM      9  H   UNL     1      50.616  49.272  18.778  1.00  0.00    +0.141 HD
BRANCH   8  10
ATOM     10  S   UNL     1      52.319  50.759  18.859  1.00  0.00    +0.242 S 
ATOM     11  O   UNL     1      52.893  51.350  17.668  1.00  0.00    -0.207 OA
ATOM     12  O   UNL     1      52.987  49.692  19.573  1.00  0.00    -0.207 OA
BRANCH  10  13
ATOM     13  C   UNL     1      51.995  52.084  19.998  1.00  0.00    +0.106 A 
ATOM     14  C   UNL     1      52.302  53.392  19.595  1.00  0.00    +0.044 A 
ATOM     15  C   UNL     1      51.419  51.821  21.253  1.00  0.00    +0.052 A 
ATOM     16  C   UNL     1      52.099  54.445  20.480  1.00  0.00    +0.042 A 
ATOM     17  C   UNL     1      51.283  52.896  22.143  1.00  0.00    +0.028 A 
ATOM     18  C   UNL     1      51.602  54.202  21.757  1.00  0.00    +0.023 A 
ATOM     19 Cl   UNL     1      52.491  56.051  20.006  1.00  0.00    -0.084 Cl
BRANCH  15  20
ATOM     20  N   UNL     1      51.185  50.524  21.738  1.00  0.00    -0.398 N 
ATOM     21  H   UNL     1      52.029  49.964  21.838  1.00  0.00    +0.156 HD
ATOM     22  H   UNL     1      50.655  50.519  22.618  1.00  0.00    +0.156 HD
ENDBRANCH  15  20
ENDBRANCH  10  13
ENDBRANCH   8  10
ENDBRANCH   7   8
ENDBRANCH   1   7
TORSDOF 9
ENDMDL
MODEL 4
REMARK VINA RESULT:    -5.999      3.199      6.232
REMARK INTER + INTRA:          -9.732
REMARK INTER:                  -8.669
REMARK INTRA:                  -1.062
REMARK UNBOUND:                -0.752
REMARK SMILES COCCOCCNS(=O)(=O)c1cc(Cl)ccc1N
REMARK SMILES IDX 6 1 5 2 4 3 3 4 2 5 1 6 7 7 8 8 9 10 10 11 11 12 12 13 13 14
REMARK SMILES IDX 18 15 14 16 17 17 16 18 15 19 19 20
REMARK H PARENT 8 9 19 21 19 22
ROOT
ATOM      1  C   UNL     1      48.695  49.255  18.310  1.00  0.00    +0.176 C 
ENDROOT
BRANCH   1   2
ATOM      2  O   UNL     1      47.691  49.730  17.401  1.00  0.00    -0.378 OA
BRANCH   2   3
ATOM      3  C   UNL     1      48.226  50.440  16.278  1.00  0.00    +0.188 C 
BRANCH   3   4
ATOM      4  C   UNL     1      48.171  49.646  14.967  1.00  0.00    +0.188 C 
BRANCH   4   5
ATOM      5  O   UNL     1      49.357  48.872  14.756  1.00  0.00    -0.382 OA
ATOM      6  C   UNL     1      50.530  49.666  14.643  1.00  0.00    +0.195 C 
ENDBRANCH   4   5
ENDBRANCH   3   4
ENDBRANCH   2   3
ENDBRANCH   1   2
BRANCH   1   7
ATOM      7  C   UNL     1      49.792  50.319  18.410  1.00  0.00    +0.127 C 
BRANCH   7   8
ATOM      8  N   UNL     1      51.039  49.680  18.890  1.00  0.00    -0.209 NA
ATOM      9  H   UNL     1      51.176  48.756  18.462  1.00  0.00    +0.141 HD
BRANCH   8  10
ATOM     10  S   UNL     1      52.454  50.591  18.807  1.00  0.00    +0.242 S 
ATOM     11  O   UNL     1      52.607  51.020  17.432  1.00  0.00    -0.207 OA
ATOM     12  O   UNL     1      53.500  49.870  19.498  1.00  0.00    -0.207 OA
BRANCH  10  13
ATOM     13  C   UNL     1      52.036  52.032  19.760  1.00  0.00    +0.106 A 
ATOM     14  C   UNL     1      52.140  53.287  19.142  1.00  0.00    +0.044 A 
ATOM     15  C   UNL     1      51.586  51.904  21.086  1.00  0.00    +0.052 A 
ATOM     16  C   UNL     1      51.860  54.435  19.875  1.00  0.00    +0.042 A 
ATOM     17  C   UNL     1      51.371  53.082  21.815  1.00  0.00    +0.028 A 
ATOM     18  C   UNL     1      51.488  54.339  21.212  1.00  0.00    +0.023 A 
ATOM     19 Cl   UNL     1      52.003  55.980  19.136  1.00  0.00    -0.084 Cl
BRANCH  15  20
ATOM     20  N   UNL     1      51.560  50.682  21.777  1.00  0.00    -0.398 N 
ATOM     21  H   UNL     1      51.718  50.771  22.777  1.00  0.00    +0.156 HD
ATOM     22  H   UNL     1      50.699  50.147  21.604  1.00  0.00    +0.156 HD
ENDBRANCH  15  20
ENDBRANCH  10  13
ENDBRANCH   8  10
ENDBRANCH   7   8
ENDBRANCH   1   7
TORSDOF 9
ENDMDL
MODEL 5
REMARK VINA RESULT:    -5.944      1.952      2.304
REMARK INTER + INTRA:          -9.650
REMARK INTER:                  -8.881
REMARK INTRA:                  -0.769
REMARK UNBOUND:                -0.752
REMARK SMILES COCCOCCNS(=O)(=O)c1cc(Cl)ccc1N
REMARK SMILES IDX 6 1 5 2 4 3 3 4 2 5 1 6 7 7 8 8 9 10 10 11 11 12 12 13 13 14
REMARK SMILES IDX 18 15 14 16 17 17 16 18 15 19 19 20
REMARK H PARENT 8 9 19 21 19 22
ROOT
ATOM      1  C   UNL     1      51.091  54.968  19.170  1.00  0.00    +0.176 C 
ENDROOT
BRANCH   1   2
ATOM      2  O   UNL     1      51.079  55.847  20.304  1.00  0.00    -0.378 OA
BRANCH   2   3
ATOM      3  C   UNL     1      49.888  56.635  20.405  1.00  0.00    +0.188 C 
BRANCH   3   4
ATOM      4  C   UNL     1      49.817  57.479  21.684  1.00  0.00    +0.188 C 
BRANCH   4   5
ATOM      5  O   UNL     1      48.574  58.180  21.799  1.00  0.00    -0.382 OA
ATOM      6  C   UNL     1      47.678  57.905  20.731  1.00  0.00    +0.195 C 
ENDBRANCH   4   5
ENDBRANCH   3   4
ENDBRANCH   2   3
ENDBRANCH   1   2
BRANCH   1   7
ATOM      7  C   UNL     1      52.343  54.091  19.255  1.00  0.00    +0.127 C 
BRANCH   7   8
ATOM      8  N   UNL     1      52.232  52.997  18.263  1.00  0.00    -0.209 NA
ATOM      9  H   UNL     1      53.010  53.016  17.593  1.00  0.00    +0.141 HD
BRANCH   8  10
ATOM     10  S   UNL     1      51.997  51.438  18.859  1.00  0.00    +0.242 S 
ATOM     11  O   UNL     1      51.944  51.535  20.303  1.00  0.00    -0.207 OA
ATOM     12  O   UNL     1      52.926  50.553  18.192  1.00  0.00    -0.207 OA
BRANCH  10  13
ATOM     13  C   UNL     1      50.353  51.059  18.299  1.00  0.00    +0.106 A 
ATOM     14  C   UNL     1      49.646  52.050  17.603  1.00  0.00    +0.044 A 
ATOM     15  C   UNL     1      49.799  49.787  18.526  1.00  0.00    +0.052 A 
ATOM     16  C   UNL     1      48.343  51.797  17.190  1.00  0.00    +0.042 A 
ATOM     17  C   UNL     1      48.463  49.585  18.150  1.00  0.00    +0.028 A 
ATOM     18  C   UNL     1      47.744  50.573  17.470  1.00  0.00    +0.023 A 
ATOM     19 Cl   UNL     1      47.458  53.012  16.354  1.00  0.00    -0.084 Cl
BRANCH  15  20
ATOM     20  N   UNL     1      50.427  48.798  19.300  1.00  0.00    -0.398 N 
ATOM     21  H   UNL     1      50.217  48.858  20.293  1.00  0.00    +0.156 HD
ATOM     22  H   UNL     1      50.239  47.847  18.959  1.00  0.00    +0.156 HD
ENDBRANCH  15  20
ENDBRANCH  10  13
ENDBRANCH   8  10
ENDBRANCH   7   8
ENDBRANCH   1   7
TORSDOF 9
ENDMDL
