MODEL 1
REMARK VINA RESULT:    -7.000      0.000      0.000
REMARK INTER + INTRA:         -10.514
REMARK INTER:                  -9.660
REMARK INTRA:                  -0.854
REMARK UNBOUND:                -0.854
REMARK SMILES CCC(CC)N(C)C(=O)C1(/C(N)=N/O)CCCCC1
REMARK SMILES IDX 8 1 9 2 6 3 7 4 3 5 2 6 1 7 4 8 5 9 10 10 15 11 19 12 16 13
REMARK SMILES IDX 18 14 17 15 11 16 13 17 12 18 14 21
REMARK H PARENT 12 19 12 20 14 22
ROOT
ATOM      1  C   UNL     1      50.236  52.918  18.636  1.00  0.00    +0.236 C 
ATOM      2  O   UNL     1      49.366  53.368  17.874  1.00  0.00    -0.274 OA
ENDROOT
BRANCH   1   3
ATOM      3  N   UNL     1      50.986  53.812  19.407  1.00  0.00    -0.342 N 
ATOM      4  C   UNL     1      52.337  54.281  19.129  1.00  0.00    +0.147 C 
BRANCH   3   5
ATOM      5  C   UNL     1      50.384  54.387  20.642  1.00  0.00    +0.084 C 
BRANCH   5   6
ATOM      6  C   UNL     1      49.901  55.833  20.391  1.00  0.00    +0.022 C 
ATOM      7  C   UNL     1      48.410  55.949  20.115  1.00  0.00    +0.006 C 
ENDBRANCH   5   6
BRANCH   5   8
ATOM      8  C   UNL     1      51.321  54.228  21.862  1.00  0.00    +0.022 C 
ATOM      9  C   UNL     1      51.604  55.546  22.572  1.00  0.00    +0.006 C 
ENDBRANCH   5   8
ENDBRANCH   3   5
ENDBRANCH   1   3
BRANCH   1  10
ATOM     10  C   UNL     1      50.456  51.368  18.692  1.00  0.00    +0.110 C 
ATOM     11  C   UNL     1      51.246  50.966  19.970  1.00  0.00    +0.025 C 
ATOM     12  C   UNL     1      49.074  50.673  18.554  1.00  0.00    +0.025 C 
ATOM     13  C   UNL     1      50.693  49.753  20.720  1.00  0.00    +0.002 C 
ATOM     14  C   UNL     1      49.020  49.187  18.930  1.00  0.00    +0.002 C 
ATOM     15  C   UNL     1      50.191  48.687  19.766  1.00  0.00    +0.000 C 
BRANCH  10  16
ATOM     16  C   UNL     1      51.363  50.930  17.483  1.00  0.00    +0.154 C 
ATOM     17  N   UNL     1      52.663  50.975  17.595  1.00  0.00    -0.075 NA
ATOM     18  N   UNL     1      50.760  50.540  16.303  1.00  0.00    -0.384 N 
ATOM     19  H   UNL     1      49.986  49.893  16.476  1.00  0.00    +0.158 HD
ATOM     20  H   UNL     1      51.460  50.105  15.707  1.00  0.00    +0.158 HD
BRANCH  17  21
ATOM     21  O   UNL     1      53.288  50.546  16.413  1.00  0.00    -0.409 OA
ATOM     22  H   UNL     1      54.153  50.238  16.741  1.00  0.00    +0.330 HD
ENDBRANCH  17  21
ENDBRANCH  10  16
ENDBRANCH   1  10
TORSDOF 7
ENDMDL
MODEL 2
REMARK VINA RESULT:    -6.986      2.199      4.785
REMARK INTER + INTRA:         -10.495
REMARK INTER:                  -9.783
REMARK INTRA:                  -0.712
REMARK UNBOUND:                -0.854
REMARK SMILES CCC(CC)N(C)C(=O)C1(/C(N)=N/O)CCCCC1
REMARK SMILES IDX 8 1 9 2 6 3 7 4 3 5 2 6 1 7 4 8 5 9 10 10 15 11 19 12 16 13
REMARK SMILES IDX 18 14 17 15 11 16 13 17 12 18 14 21
REMARK H PARENT 12 19 12 20 14 22
ROOT
ATOM      1  C   UNL     1      50.019  50.038  18.891  1.00  0.00    +0.236 C 
ATOM      2  O   UNL     1      49.962  48.966  19.513  1.00  0.00    -0.274 OA
ENDROOT
BRANCH   1   3
ATOM      3  N   UNL     1      49.310  50.161  17.692  1.00  0.00    -0.342 N 
ATOM      4  C   UNL     1      49.824  49.935  16.348  1.00  0.00    +0.147 C 
BRANCH   3   5
ATOM      5  C   UNL     1      47.871  50.544  17.736  1.00  0.00    +0.084 C 
BRANCH   5   6
ATOM      6  C   UNL     1      46.982  49.299  17.953  1.00  0.00    +0.022 C 
ATOM      7  C   UNL     1      45.701  49.302  17.133  1.00  0.00    +0.006 C 
ENDBRANCH   5   6
BRANCH   5   8
ATOM      8  C   UNL     1      47.472  51.410  16.519  1.00  0.00    +0.022 C 
ATOM      9  C   UNL     1      47.570  52.906  16.794  1.00  0.00    +0.006 C 
ENDBRANCH   5   8
ENDBRANCH   3   5
ENDBRANCH   1   3
BRANCH   1  10
ATOM     10  C   UNL     1      50.889  51.201  19.477  1.00  0.00    +0.110 C 
ATOM     11  C   UNL     1      50.095  52.540  19.482  1.00  0.00    +0.025 C 
ATOM     12  C   UNL     1      51.411  50.766  20.874  1.00  0.00    +0.025 C 
ATOM     13  C   UNL     1      50.206  53.355  20.772  1.00  0.00    +0.002 C 
ATOM     14  C   UNL     1      51.985  51.878  21.762  1.00  0.00    +0.002 C 
ATOM     15  C   UNL     1      51.606  53.296  21.352  1.00  0.00    +0.000 C 
BRANCH  10  16
ATOM     16  C   UNL     1      52.124  51.450  18.533  1.00  0.00    +0.154 C 
ATOM     17  N   UNL     1      52.365  52.650  18.079  1.00  0.00    -0.075 NA
ATOM     18  N   UNL     1      52.912  50.375  18.170  1.00  0.00    -0.384 N 
ATOM     19  H   UNL     1      53.139  49.789  18.977  1.00  0.00    +0.158 HD
ATOM     20  H   UNL     1      53.763  50.727  17.736  1.00  0.00    +0.158 HD
BRANCH  17  21
ATOM     21  O   UNL     1      53.505  52.661  17.259  1.00  0.00    -0.409 OA
ATOM     22  H   UNL     1      54.180  53.033  17.856  1.00  0.00    +0.330 HD
ENDBRANCH  17  21
ENDBRANCH  10  16
ENDBRANCH   1  10
TORSDOF 7
ENDMDL
MODEL 3
REMARK VINA RESULT:    -6.517      1.962      4.980
REMARK INTER + INTRA:          -9.848
REMARK INTER:                  -9.630
REMARK INTRA:                  -0.218
REMARK UNBOUND:                -0.854
REMARK SMILES CCC(CC)N(C)C(=O)C1(/C(N)=N/O)CCCCC1
REMARK SMILES IDX 8 1 9 2 6 3 7 4 3 5 2 6 1 7 4 8 5 9 10 10 15 11 19 12 16 13
REMARK SMILES IDX 18 14 17 15 11 16 13 17 12 18 14 21
REMARK H PARENT 12 19 12 20 14 22
ROOT
ATOM      1  C   UNL     1      49.408  51.449  17.833  1.00  0.00    +0.236 C 
ATOM      2  O   UNL     1      48.547  52.340  17.769  1.00  0.00    -0.274 OA
ENDROOT
BRANCH   1   3
ATOM      3  N   UNL     1      49.344  50.381  16.932  1.00  0.00    -0.342 N 
ATOM      4  C   UNL     1      49.909  50.340  15.590  1.00  0.00    +0.147 C 
BRANCH   3   5
ATOM      5  C   UNL     1      48.655  49.126  17.342  1.00  0.00    +0.084 C 
BRANCH   5   6
ATOM      6  C   UNL     1      48.647  48.105  16.182  1.00  0.00    +0.022 C 
ATOM      7  C   UNL     1      47.382  48.137  15.338  1.00  0.00    +0.006 C 
ENDBRANCH   5   6
BRANCH   5   8
ATOM      8  C   UNL     1      47.263  49.411  17.953  1.00  0.00    +0.022 C 
ATOM      9  C   UNL     1      46.734  48.256  18.794  1.00  0.00    +0.006 C 
ENDBRANCH   5   8
ENDBRANCH   3   5
ENDBRANCH   1   3
BRANCH   1  10
ATOM     10  C   UNL     1      50.522  51.560  18.929  1.00  0.00    +0.110 C 
ATOM     11  C   UNL     1      50.356  52.867  19.758  1.00  0.00    +0.025 C 
ATOM     12  C   UNL     1      50.505  50.261  19.779  1.00  0.00    +0.025 C 
ATOM     13  C   UNL     1      50.502  52.697  21.271  1.00  0.00    +0.002 C 
ATOM     14  C   UNL     1      51.270  50.308  21.108  1.00  0.00    +0.002 C 
ATOM     15  C   UNL     1      51.594  51.706  21.620  1.00  0.00    +0.000 C 
BRANCH  10  16
ATOM     16  C   UNL     1      51.926  51.685  18.227  1.00  0.00    +0.154 C 
ATOM     17  N   UNL     1      52.413  52.865  17.953  1.00  0.00    -0.075 NA
ATOM     18  N   UNL     1      52.601  50.532  17.878  1.00  0.00    -0.384 N 
ATOM     19  H   UNL     1      52.596  49.851  18.642  1.00  0.00    +0.158 HD
ATOM     20  H   UNL     1      53.557  50.777  17.627  1.00  0.00    +0.158 HD
BRANCH  17  21
ATOM     21  O   UNL     1      53.669  52.761  17.331  1.00  0.00    -0.409 OA
ATOM     22  H   UNL     1      54.188  52.280  18.002  1.00  0.00    +0.330 HD
ENDBRANCH  17  21
ENDBRANCH  10  16
ENDBRANCH   1  10
TORSDOF 7
ENDMDL
MODEL 4
REMARK VINA RESULT:    -6.320      1.465      1.988
REMARK INTER + INTRA:          -9.575
REMARK INTER:                  -8.774
REMARK INTRA:                  -0.802
REMARK UNBOUND:                -0.854
REMARK SMILES CCC(CC)N(C)C(=O)C1(/C(N)=N/O)CCCCC1
REMARK SMILES IDX 8 1 9 2 6 3 7 4 3 5 2 6 1 7 4 8 5 9 10 10 15 11 19 12 16 13
REMARK SMILES IDX 18 14 17 15 11 16 13 17 12 18 14 21
REMARK H PARENT 12 19 12 20 14 22
ROOT
ATOM      1  C   UNL     1      49.850  52.594  17.950  1.00  0.00    +0.236 C 
ATOM      2  O   UNL     1      49.110  53.248  17.199  1.00  0.00    -0.274 OA
ENDROOT
BRANCH   1   3
ATOM      3  N   UNL     1      50.588  53.270  18.927  1.00  0.00    -0.342 N 
ATOM      4  C   UNL     1      51.976  53.699  18.827  1.00  0.00    +0.147 C 
BRANCH   3   5
ATOM      5  C   UNL     1      49.931  53.628  20.214  1.00  0.00    +0.084 C 
BRANCH   5   6
ATOM      6  C   UNL     1      49.300  55.035  20.132  1.00  0.00    +0.022 C 
ATOM      7  C   UNL     1      49.988  56.075  21.004  1.00  0.00    +0.006 C 
ENDBRANCH   5   6
BRANCH   5   8
ATOM      8  C   UNL     1      50.881  53.422  21.417  1.00  0.00    +0.022 C 
ATOM      9  C   UNL     1      50.977  51.967  21.860  1.00  0.00    +0.006 C 
ENDBRANCH   5   8
ENDBRANCH   3   5
ENDBRANCH   1   3
BRANCH   1  10
ATOM     10  C   UNL     1      49.925  51.040  17.763  1.00  0.00    +0.110 C 
ATOM     11  C   UNL     1      49.174  50.306  18.912  1.00  0.00    +0.025 C 
ATOM     12  C   UNL     1      49.407  50.693  16.341  1.00  0.00    +0.025 C 
ATOM     13  C   UNL     1      48.269  49.157  18.464  1.00  0.00    +0.002 C 
ATOM     14  C   UNL     1      49.070  49.219  16.081  1.00  0.00    +0.002 C 
ATOM     15  C   UNL     1      48.890  48.365  17.330  1.00  0.00    +0.000 C 
BRANCH  10  16
ATOM     16  C   UNL     1      51.424  50.577  17.880  1.00  0.00    +0.154 C 
ATOM     17  N   UNL     1      51.855  50.041  18.990  1.00  0.00    -0.075 NA
ATOM     18  N   UNL     1      52.272  50.785  16.810  1.00  0.00    -0.384 N 
ATOM     19  H   UNL     1      51.836  50.504  15.928  1.00  0.00    +0.158 HD
ATOM     20  H   UNL     1      53.129  50.260  16.965  1.00  0.00    +0.158 HD
BRANCH  17  21
ATOM     21  O   UNL     1      53.214  49.698  18.892  1.00  0.00    -0.409 OA
ATOM     22  H   UNL     1      53.550  49.950  19.772  1.00  0.00    +0.330 HD
ENDBRANCH  17  21
ENDBRANCH  10  16
ENDBRANCH   1  10
TORSDOF 7
ENDMDL
MODEL 5
REMARK VINA RESULT:    -6.200      2.325      5.073
REMARK INTER + INTRA:          -9.410
REMARK INTER:                  -8.907
REMARK INTRA:                  -0.504
REMARK UNBOUND:                -0.854
REMARK SMILES CCC(CC)N(C)C(=O)C1(/C(N)=N/O)CCCCC1
REMARK SMILES IDX 8 1 9 2 6 3 7 4 3 5 2 6 1 7 4 8 5 9 10 10 15 11 19 12 16 13
REMARK SMILES IDX 18 14 17 15 11 16 13 17 12 18 14 21
REMARK H PARENT 12 19 12 20 14 22
ROOT
ATOM      1  C   UNL     1      50.804  50.755  17.588  1.00  0.00    +0.236 C 
ATOM      2  O   UNL     1      51.539  50.653  16.593  1.00  0.00    -0.274 OA
ENDROOT
BRANCH   1   3
ATOM      3  N   UNL     1      49.516  50.214  17.534  1.00  0.00    -0.342 N 
ATOM      4  C   UNL     1      48.880  49.378  18.543  1.00  0.00    +0.147 C 
BRANCH   3   5
ATOM      5  C   UNL     1      48.656  50.504  16.354  1.00  0.00    +0.084 C 
BRANCH   5   6
ATOM      6  C   UNL     1      48.412  52.024  16.217  1.00  0.00    +0.022 C 
ATOM      7  C   UNL     1      47.329  52.563  17.138  1.00  0.00    +0.006 C 
ENDBRANCH   5   6
BRANCH   5   8
ATOM      8  C   UNL     1      47.367  49.648  16.361  1.00  0.00    +0.022 C 
ATOM      9  C   UNL     1      47.136  48.910  15.049  1.00  0.00    +0.006 C 
ENDBRANCH   5   8
ENDBRANCH   3   5
ENDBRANCH   1   3
BRANCH   1  10
ATOM     10  C   UNL     1      51.355  51.492  18.856  1.00  0.00    +0.110 C 
ATOM     11  C   UNL     1      52.436  52.540  18.462  1.00  0.00    +0.025 C 
ATOM     12  C   UNL     1      50.152  52.083  19.640  1.00  0.00    +0.025 C 
ATOM     13  C   UNL     1      52.303  53.899  19.151  1.00  0.00    +0.002 C 
ATOM     14  C   UNL     1      50.487  53.129  20.711  1.00  0.00    +0.002 C 
ATOM     15  C   UNL     1      51.872  53.754  20.597  1.00  0.00    +0.000 C 
BRANCH  10  16
ATOM     16  C   UNL     1      52.095  50.452  19.777  1.00  0.00    +0.154 C 
ATOM     17  N   UNL     1      53.273  50.003  19.436  1.00  0.00    -0.075 NA
ATOM     18  N   UNL     1      51.461  50.003  20.919  1.00  0.00    -0.384 N 
ATOM     19  H   UNL     1      51.046  50.777  21.444  1.00  0.00    +0.158 HD
ATOM     20  H   UNL     1      52.138  49.506  21.494  1.00  0.00    +0.158 HD
BRANCH  17  21
ATOM     21  O   UNL     1      53.761  49.090  20.385  1.00  0.00    -0.409 OA
ATOM     22  H   UNL     1      54.715  49.290  20.387  1.00  0.00    +0.330 HD
ENDBRANCH  17  21
ENDBRANCH  10  16
ENDBRANCH   1  10
TORSDOF 7
ENDMDL
