MODEL 1
REMARK VINA RESULT:    -6.825      0.000      0.000
REMARK INTER + INTRA:         -10.565
REMARK INTER:                  -9.617
REMARK INTRA:                  -0.948
REMARK UNBOUND:                -0.948
REMARK SMILES CCCC(CCC)(C(=O)Nc1c(C)n[nH]c1C)C(N)=S
REMARK SMILES IDX 4 1 3 2 2 3 1 4 5 5 6 6 7 7 18 8 20 9 19 10 8 13 9 14 10 15
REMARK SMILES IDX 11 17 16 18 12 19 15 20 14 21 17 22 13 23
REMARK H PARENT 19 11 19 12 10 16 15 24
ROOT
ATOM      1  C   UNL     1      48.439  50.520  17.091  1.00  0.00    +0.099 C 
ENDROOT
BRANCH   1   2
ATOM      2  C   UNL     1      48.815  51.926  16.496  1.00  0.00    +0.024 C 
BRANCH   2   3
ATOM      3  C   UNL     1      47.757  53.028  16.665  1.00  0.00    -0.002 C 
ATOM      4  C   UNL     1      48.367  54.285  17.269  1.00  0.00    +0.004 C 
ENDBRANCH   2   3
ENDBRANCH   1   2
BRANCH   1   5
ATOM      5  C   UNL     1      46.907  50.508  17.402  1.00  0.00    +0.024 C 
BRANCH   5   6
ATOM      6  C   UNL     1      46.156  49.250  16.934  1.00  0.00    -0.002 C 
ATOM      7  C   UNL     1      45.745  48.383  18.115  1.00  0.00    +0.004 C 
ENDBRANCH   5   6
ENDBRANCH   1   5
BRANCH   1   8
ATOM      8  C   UNL     1      48.868  49.445  16.043  1.00  0.00    +0.088 C 
ATOM      9  S   UNL     1      48.754  49.651  14.377  1.00  0.00    -0.065 S 
ATOM     10  N   UNL     1      49.233  48.199  16.470  1.00  0.00    -0.392 N 
ATOM     11  H   UNL     1      49.533  47.538  15.760  1.00  0.00    +0.157 HD
ATOM     12  H   UNL     1      49.484  47.970  17.421  1.00  0.00    +0.157 HD
ENDBRANCH   1   8
BRANCH   1  13
ATOM     13  C   UNL     1      49.172  50.301  18.455  1.00  0.00    +0.237 C 
ATOM     14  O   UNL     1      48.913  49.327  19.159  1.00  0.00    -0.274 OA
ATOM     15  N   UNL     1      49.993  51.346  18.845  1.00  0.00    -0.322 N 
ATOM     16  H   UNL     1      49.892  52.229  18.367  1.00  0.00    +0.170 HD
BRANCH  15  17
ATOM     17  C   UNL     1      50.828  51.388  19.953  1.00  0.00    +0.085 A 
ATOM     18  C   UNL     1      51.775  50.492  20.406  1.00  0.00    +0.056 A 
ATOM     19  C   UNL     1      50.902  52.477  20.875  1.00  0.00    +0.083 A 
ATOM     20  N   UNL     1      52.293  51.048  21.545  1.00  0.00    -0.280 N 
ATOM     21  N   UNL     1      51.795  52.255  21.843  1.00  0.00    -0.179 NA
ATOM     22  C   UNL     1      52.295  49.193  19.915  1.00  0.00    +0.068 C 
ATOM     23  C   UNL     1      50.122  53.739  20.870  1.00  0.00    +0.071 C 
ATOM     24  H   UNL     1      53.006  50.662  22.154  1.00  0.00    +0.190 HD
ENDBRANCH  15  17
ENDBRANCH   1  13
TORSDOF 7
ENDMDL
MODEL 2
REMARK VINA RESULT:    -6.697      2.656      6.165
REMARK INTER + INTRA:         -10.385
REMARK INTER:                  -9.726
REMARK INTRA:                  -0.659
REMARK UNBOUND:                -0.948
REMARK SMILES CCCC(CCC)(C(=O)Nc1c(C)n[nH]c1C)C(N)=S
REMARK SMILES IDX 4 1 3 2 2 3 1 4 5 5 6 6 7 7 18 8 20 9 19 10 8 13 9 14 10 15
REMARK SMILES IDX 11 17 16 18 12 19 15 20 14 21 17 22 13 23
REMARK H PARENT 19 11 19 12 10 16 15 24
ROOT
ATOM      1  C   UNL     1      48.968  50.181  16.668  1.00  0.00    +0.099 C 
ENDROOT
BRANCH   1   2
ATOM      2  C   UNL     1      49.349  50.477  18.165  1.00  0.00    +0.024 C 
BRANCH   2   3
ATOM      3  C   UNL     1      49.237  49.287  19.130  1.00  0.00    -0.002 C 
ATOM      4  C   UNL     1      50.503  49.136  19.963  1.00  0.00    +0.004 C 
ENDBRANCH   2   3
ENDBRANCH   1   2
BRANCH   1   5
ATOM      5  C   UNL     1      47.978  51.289  16.181  1.00  0.00    +0.024 C 
BRANCH   5   6
ATOM      6  C   UNL     1      47.727  52.427  17.184  1.00  0.00    -0.002 C 
ATOM      7  C   UNL     1      47.919  53.789  16.531  1.00  0.00    +0.004 C 
ENDBRANCH   5   6
ENDBRANCH   1   5
BRANCH   1   8
ATOM      8  C   UNL     1      50.299  50.137  15.852  1.00  0.00    +0.088 C 
ATOM      9  S   UNL     1      50.413  49.611  14.258  1.00  0.00    -0.065 S 
ATOM     10  N   UNL     1      51.482  50.405  16.482  1.00  0.00    -0.392 N 
ATOM     11  H   UNL     1      52.321  50.394  15.911  1.00  0.00    +0.157 HD
ATOM     12  H   UNL     1      51.563  50.865  17.378  1.00  0.00    +0.157 HD
ENDBRANCH   1   8
BRANCH   1  13
ATOM     13  C   UNL     1      48.201  48.823  16.567  1.00  0.00    +0.237 C 
ATOM     14  O   UNL     1      48.809  47.766  16.412  1.00  0.00    -0.274 OA
ATOM     15  N   UNL     1      46.822  48.940  16.516  1.00  0.00    -0.322 N 
ATOM     16  H   UNL     1      46.432  49.851  16.325  1.00  0.00    +0.170 HD
BRANCH  15  17
ATOM     17  C   UNL     1      45.891  47.909  16.517  1.00  0.00    +0.085 A 
ATOM     18  C   UNL     1      45.259  47.263  17.559  1.00  0.00    +0.056 A 
ATOM     19  C   UNL     1      45.336  47.315  15.342  1.00  0.00    +0.083 A 
ATOM     20  N   UNL     1      44.445  46.330  16.974  1.00  0.00    -0.280 N 
ATOM     21  N   UNL     1      44.460  46.350  15.635  1.00  0.00    -0.179 NA
ATOM     22  C   UNL     1      45.279  47.404  19.035  1.00  0.00    +0.068 C 
ATOM     23  C   UNL     1      45.632  47.633  13.924  1.00  0.00    +0.071 C 
ATOM     24  H   UNL     1      43.837  45.662  17.434  1.00  0.00    +0.190 HD
ENDBRANCH  15  17
ENDBRANCH   1  13
TORSDOF 7
ENDMDL
MODEL 3
REMARK VINA RESULT:    -6.682      1.098      2.169
REMARK INTER + INTRA:         -10.364
REMARK INTER:                  -9.291
REMARK INTRA:                  -1.073
REMARK UNBOUND:                -0.948
REMARK SMILES CCCC(CCC)(C(=O)Nc1c(C)n[nH]c1C)C(N)=S
REMARK SMILES IDX 4 1 3 2 2 3 1 4 5 5 6 6 7 7 18 8 20 9 19 10 8 13 9 14 10 15
REMARK SMILES IDX 11 17 16 18 12 19 15 20 14 21 17 22 13 23
REMARK H PARENT 19 11 19 12 10 16 15 24
ROOT
ATOM      1  C   UNL     1      48.238  49.866  17.144  1.00  0.00    +0.099 C 
ENDROOT
BRANCH   1   2
ATOM      2  C   UNL     1      47.298  51.037  16.679  1.00  0.00    +0.024 C 
BRANCH   2   3
ATOM      3  C   UNL     1      47.528  52.392  17.367  1.00  0.00    -0.002 C 
ATOM      4  C   UNL     1      47.797  53.487  16.344  1.00  0.00    +0.004 C 
ENDBRANCH   2   3
ENDBRANCH   1   2
BRANCH   1   5
ATOM      5  C   UNL     1      47.559  49.132  18.345  1.00  0.00    +0.024 C 
BRANCH   5   6
ATOM      6  C   UNL     1      46.160  48.563  18.057  1.00  0.00    -0.002 C 
ATOM      7  C   UNL     1      45.722  47.597  19.149  1.00  0.00    +0.004 C 
ENDBRANCH   5   6
ENDBRANCH   1   5
BRANCH   1   8
ATOM      8  C   UNL     1      48.473  48.943  15.906  1.00  0.00    +0.088 C 
ATOM      9  S   UNL     1      47.538  48.983  14.507  1.00  0.00    -0.065 S 
ATOM     10  N   UNL     1      49.395  47.938  15.983  1.00  0.00    -0.392 N 
ATOM     11  H   UNL     1      49.539  47.378  15.148  1.00  0.00    +0.157 HD
ATOM     12  H   UNL     1      50.119  47.877  16.684  1.00  0.00    +0.157 HD
ENDBRANCH   1   8
BRANCH   1  13
ATOM     13  C   UNL     1      49.589  50.442  17.680  1.00  0.00    +0.237 C 
ATOM     14  O   UNL     1      50.537  50.635  16.921  1.00  0.00    -0.274 OA
ATOM     15  N   UNL     1      49.661  50.561  19.058  1.00  0.00    -0.322 N 
ATOM     16  H   UNL     1      48.965  50.081  19.610  1.00  0.00    +0.170 HD
BRANCH  15  17
ATOM     17  C   UNL     1      50.692  51.122  19.799  1.00  0.00    +0.085 A 
ATOM     18  C   UNL     1      50.860  52.399  20.294  1.00  0.00    +0.056 A 
ATOM     19  C   UNL     1      51.838  50.408  20.267  1.00  0.00    +0.083 A 
ATOM     20  N   UNL     1      52.063  52.386  20.948  1.00  0.00    -0.280 N 
ATOM     21  N   UNL     1      52.668  51.191  20.961  1.00  0.00    -0.179 NA
ATOM     22  C   UNL     1      50.045  53.638  20.271  1.00  0.00    +0.068 C 
ATOM     23  C   UNL     1      52.180  48.980  20.055  1.00  0.00    +0.071 C 
ATOM     24  H   UNL     1      52.518  53.156  21.425  1.00  0.00    +0.190 HD
ENDBRANCH  15  17
ENDBRANCH   1  13
TORSDOF 7
ENDMDL
MODEL 4
REMARK VINA RESULT:    -6.457      3.663      6.745
REMARK INTER + INTRA:         -10.047
REMARK INTER:                  -9.658
REMARK INTRA:                  -0.388
REMARK UNBOUND:                -0.948
REMARK SMILES CCCC(CCC)(C(=O)Nc1c(C)n[nH]c1C)C(N)=S
REMARK SMILES IDX 4 1 3 2 2 3 1 4 5 5 6 6 7 7 18 8 20 9 19 10 8 13 9 14 10 15
REMARK SMILES IDX 11 17 16 18 12 19 15 20 14 21 17 22 13 23
REMARK H PARENT 19 11 19 12 10 16 15 24
ROOT
ATOM      1  C   UNL     1      50.956  55.367  20.387  1.00  0.00    +0.099 C 
ENDROOT
BRANCH   1   2
ATOM      2  C   UNL     1      49.413  55.655  20.489  1.00  0.00    +0.024 C 
BRANCH   2   3
ATOM      3  C   UNL     1      48.974  57.080  20.120  1.00  0.00    -0.002 C 
ATOM      4  C   UNL     1      48.517  57.848  21.353  1.00  0.00    +0.004 C 
ENDBRANCH   2   3
ENDBRANCH   1   2
BRANCH   1   5
ATOM      5  C   UNL     1      51.678  56.684  19.954  1.00  0.00    +0.024 C 
BRANCH   5   6
ATOM      6  C   UNL     1      53.116  56.842  20.474  1.00  0.00    -0.002 C 
ATOM      7  C   UNL     1      53.342  58.230  21.057  1.00  0.00    +0.004 C 
ENDBRANCH   5   6
ENDBRANCH   1   5
BRANCH   1   8
ATOM      8  C   UNL     1      51.420  54.834  21.780  1.00  0.00    +0.088 C 
ATOM      9  S   UNL     1      51.658  53.208  22.138  1.00  0.00    -0.065 S 
ATOM     10  N   UNL     1      51.514  55.701  22.832  1.00  0.00    -0.392 N 
ATOM     11  H   UNL     1      51.847  55.322  23.713  1.00  0.00    +0.157 HD
ATOM     12  H   UNL     1      51.543  56.707  22.745  1.00  0.00    +0.157 HD
ENDBRANCH   1   8
BRANCH   1  13
ATOM     13  C   UNL     1      51.234  54.317  19.262  1.00  0.00    +0.237 C 
ATOM     14  O   UNL     1      52.273  54.356  18.607  1.00  0.00    -0.274 OA
ATOM     15  N   UNL     1      50.172  53.471  18.985  1.00  0.00    -0.322 N 
ATOM     16  H   UNL     1      49.263  53.722  19.344  1.00  0.00    +0.170 HD
BRANCH  15  17
ATOM     17  C   UNL     1      50.164  52.394  18.109  1.00  0.00    +0.085 A 
ATOM     18  C   UNL     1      51.003  51.303  18.008  1.00  0.00    +0.056 A 
ATOM     19  C   UNL     1      49.175  52.174  17.101  1.00  0.00    +0.083 A 
ATOM     20  N   UNL     1      50.521  50.563  16.962  1.00  0.00    -0.280 N 
ATOM     21  N   UNL     1      49.408  51.057  16.406  1.00  0.00    -0.179 NA
ATOM     22  C   UNL     1      52.185  50.828  18.767  1.00  0.00    +0.068 C 
ATOM     23  C   UNL     1      48.004  53.020  16.763  1.00  0.00    +0.071 C 
ATOM     24  H   UNL     1      50.896  49.697  16.592  1.00  0.00    +0.190 HD
ENDBRANCH  15  17
ENDBRANCH   1  13
TORSDOF 7
ENDMDL
MODEL 5
REMARK VINA RESULT:    -6.415      2.663      6.207
REMARK INTER + INTRA:          -9.989
REMARK INTER:                  -9.078
REMARK INTRA:                  -0.911
REMARK UNBOUND:                -0.948
REMARK SMILES CCCC(CCC)(C(=O)Nc1c(C)n[nH]c1C)C(N)=S
REMARK SMILES IDX 4 1 3 2 2 3 1 4 5 5 6 6 7 7 18 8 20 9 19 10 8 13 9 14 10 15
REMARK SMILES IDX 11 17 16 18 12 19 15 20 14 21 17 22 13 23
REMARK H PARENT 19 11 19 12 10 16 15 24
ROOT
ATOM      1  C   UNL     1      48.559  50.299  16.938  1.00  0.00    +0.099 C 
ENDROOT
BRANCH   1   2
ATOM      2  C   UNL     1      47.510  51.428  17.253  1.00  0.00    +0.024 C 
BRANCH   2   3
ATOM      3  C   UNL     1      47.667  52.728  16.449  1.00  0.00    -0.002 C 
ATOM      4  C   UNL     1      48.351  53.806  17.278  1.00  0.00    +0.004 C 
ENDBRANCH   2   3
ENDBRANCH   1   2
BRANCH   1   5
ATOM      5  C   UNL     1      49.135  50.544  15.505  1.00  0.00    +0.024 C 
BRANCH   5   6
ATOM      6  C   UNL     1      49.810  49.325  14.856  1.00  0.00    -0.002 C 
ATOM      7  C   UNL     1      51.237  49.645  14.435  1.00  0.00    +0.004 C 
ENDBRANCH   5   6
ENDBRANCH   1   5
BRANCH   1   8
ATOM      8  C   UNL     1      49.644  50.350  18.060  1.00  0.00    +0.088 C 
ATOM      9  S   UNL     1      51.088  51.206  17.939  1.00  0.00    -0.065 S 
ATOM     10  N   UNL     1      49.509  49.554  19.162  1.00  0.00    -0.392 N 
ATOM     11  H   UNL     1      50.220  49.638  19.882  1.00  0.00    +0.157 HD
ATOM     12  H   UNL     1      48.649  49.104  19.442  1.00  0.00    +0.157 HD
ENDBRANCH   1   8
BRANCH   1  13
ATOM     13  C   UNL     1      47.853  48.905  16.902  1.00  0.00    +0.237 C 
ATOM     14  O   UNL     1      48.471  47.878  17.175  1.00  0.00    -0.274 OA
ATOM     15  N   UNL     1      46.560  48.923  16.404  1.00  0.00    -0.322 N 
ATOM     16  H   UNL     1      46.257  49.749  15.910  1.00  0.00    +0.170 HD
BRANCH  15  17
ATOM     17  C   UNL     1      45.670  47.860  16.340  1.00  0.00    +0.085 A 
ATOM     18  C   UNL     1      44.976  47.201  17.334  1.00  0.00    +0.056 A 
ATOM     19  C   UNL     1      45.235  47.235  15.131  1.00  0.00    +0.083 A 
ATOM     20  N   UNL     1      44.246  46.234  16.696  1.00  0.00    -0.280 N 
ATOM     21  N   UNL     1      44.372  46.242  15.363  1.00  0.00    -0.179 NA
ATOM     22  C   UNL     1      44.868  47.357  18.805  1.00  0.00    +0.068 C 
ATOM     23  C   UNL     1      45.637  47.550  13.738  1.00  0.00    +0.071 C 
ATOM     24  H   UNL     1      43.627  45.549  17.113  1.00  0.00    +0.190 HD
ENDBRANCH  15  17
ENDBRANCH   1  13
TORSDOF 7
ENDMDL
