MODEL 1
REMARK VINA RESULT:    -6.966      0.000      0.000
REMARK INTER + INTRA:         -10.868
REMARK INTER:                 -10.021
REMARK INTRA:                  -0.847
REMARK UNBOUND:                -0.847
REMARK SMILES CC(C)C[C@@H](C)N(C)C(=O)[C@H](/C(N)=N/O)C(C)C
REMARK SMILES IDX 9 1 10 2 7 3 8 4 5 5 6 6 4 7 2 8 1 9 3 10 11 11 16 12 17 13
REMARK SMILES IDX 18 14 12 15 14 16 13 17 15 20
REMARK H PARENT 13 18 13 19 15 21
ROOT
ATOM      1  C   UNL     1      51.900  53.378  19.609  1.00  0.00    +0.233 C 
ATOM      2  O   UNL     1      52.611  53.856  18.721  1.00  0.00    -0.274 OA
ENDROOT
BRANCH   1   3
ATOM      3  N   UNL     1      51.606  54.116  20.770  1.00  0.00    -0.342 N 
ATOM      4  C   UNL     1      51.472  53.489  22.086  1.00  0.00    +0.147 C 
BRANCH   3   5
ATOM      5  C   UNL     1      51.881  55.576  20.733  1.00  0.00    +0.081 C 
ATOM      6  C   UNL     1      52.187  56.081  22.148  1.00  0.00    +0.031 C 
BRANCH   5   7
ATOM      7  C   UNL     1      50.732  56.359  20.057  1.00  0.00    +0.028 C 
BRANCH   7   8
ATOM      8  C   UNL     1      49.399  56.367  20.837  1.00  0.00    -0.015 C 
ATOM      9  C   UNL     1      49.198  57.738  21.492  1.00  0.00    +0.007 C 
ATOM     10  C   UNL     1      48.184  56.029  19.977  1.00  0.00    +0.007 C 
ENDBRANCH   7   8
ENDBRANCH   5   7
ENDBRANCH   3   5
ENDBRANCH   1   3
BRANCH   1  11
ATOM     11  C   UNL     1      51.256  51.991  19.447  1.00  0.00    +0.150 C 
BRANCH  11  12
ATOM     12  C   UNL     1      50.228  51.865  18.283  1.00  0.00    +0.003 C 
ATOM     13  C   UNL     1      49.372  50.600  18.413  1.00  0.00    +0.008 C 
ATOM     14  C   UNL     1      49.337  53.092  18.062  1.00  0.00    +0.008 C 
ENDBRANCH  11  12
BRANCH  11  15
ATOM     15  C   UNL     1      52.274  50.857  19.339  1.00  0.00    +0.151 C 
ATOM     16  N   UNL     1      52.693  50.269  20.421  1.00  0.00    -0.075 NA
ATOM     17  N   UNL     1      52.728  50.512  18.085  1.00  0.00    -0.384 N 
ATOM     18  H   UNL     1      52.853  51.275  17.431  1.00  0.00    +0.158 HD
ATOM     19  H   UNL     1      53.554  49.923  18.167  1.00  0.00    +0.158 HD
BRANCH  16  20
ATOM     20  O   UNL     1      53.643  49.280  20.120  1.00  0.00    -0.409 OA
ATOM     21  H   UNL     1      53.194  48.470  20.430  1.00  0.00    +0.330 HD
ENDBRANCH  16  20
ENDBRANCH  11  15
ENDBRANCH   1  11
TORSDOF 8
ENDMDL
MODEL 2
REMARK VINA RESULT:    -6.515      3.039      6.019
REMARK INTER + INTRA:         -10.219
REMARK INTER:                  -9.948
REMARK INTRA:                  -0.271
REMARK UNBOUND:                -0.847
REMARK SMILES CC(C)C[C@@H](C)N(C)C(=O)[C@H](/C(N)=N/O)C(C)C
REMARK SMILES IDX 9 1 10 2 7 3 8 4 5 5 6 6 4 7 2 8 1 9 3 10 11 11 16 12 17 13
REMARK SMILES IDX 18 14 12 15 14 16 13 17 15 20
REMARK H PARENT 13 18 13 19 15 21
ROOT
ATOM      1  C   UNL     1      50.528  50.573  17.712  1.00  0.00    +0.233 C 
ATOM      2  O   UNL     1      51.124  50.522  16.633  1.00  0.00    -0.274 OA
ENDROOT
BRANCH   1   3
ATOM      3  N   UNL     1      49.141  50.352  17.779  1.00  0.00    -0.342 N 
ATOM      4  C   UNL     1      48.165  51.335  17.307  1.00  0.00    +0.147 C 
BRANCH   3   5
ATOM      5  C   UNL     1      48.685  48.944  17.909  1.00  0.00    +0.081 C 
ATOM      6  C   UNL     1      48.504  48.328  16.517  1.00  0.00    +0.031 C 
BRANCH   5   7
ATOM      7  C   UNL     1      47.412  48.831  18.780  1.00  0.00    +0.028 C 
BRANCH   7   8
ATOM      8  C   UNL     1      46.184  48.223  18.067  1.00  0.00    -0.015 C 
ATOM      9  C   UNL     1      45.400  47.349  19.052  1.00  0.00    +0.007 C 
ATOM     10  C   UNL     1      45.252  49.266  17.457  1.00  0.00    +0.007 C 
ENDBRANCH   7   8
ENDBRANCH   5   7
ENDBRANCH   3   5
ENDBRANCH   1   3
BRANCH   1  11
ATOM     11  C   UNL     1      51.291  50.811  19.026  1.00  0.00    +0.150 C 
BRANCH  11  12
ATOM     12  C   UNL     1      50.593  51.766  20.040  1.00  0.00    +0.003 C 
ATOM     13  C   UNL     1      51.350  51.837  21.371  1.00  0.00    +0.008 C 
ATOM     14  C   UNL     1      50.302  53.176  19.516  1.00  0.00    +0.008 C 
ENDBRANCH  11  12
BRANCH  11  15
ATOM     15  C   UNL     1      51.682  49.520  19.744  1.00  0.00    +0.151 C 
ATOM     16  N   UNL     1      50.772  48.841  20.381  1.00  0.00    -0.075 NA
ATOM     17  N   UNL     1      53.002  49.132  19.704  1.00  0.00    -0.384 N 
ATOM     18  H   UNL     1      53.688  49.877  19.741  1.00  0.00    +0.158 HD
ATOM     19  H   UNL     1      53.171  48.406  20.397  1.00  0.00    +0.158 HD
BRANCH  16  20
ATOM     20  O   UNL     1      51.329  47.710  20.997  1.00  0.00    -0.409 OA
ATOM     21  H   UNL     1      50.539  47.278  21.374  1.00  0.00    +0.330 HD
ENDBRANCH  16  20
ENDBRANCH  11  15
ENDBRANCH   1  11
TORSDOF 8
ENDMDL
MODEL 3
REMARK VINA RESULT:    -6.125      2.842      6.292
REMARK INTER + INTRA:          -9.658
REMARK INTER:                  -9.007
REMARK INTRA:                  -0.650
REMARK UNBOUND:                -0.847
REMARK SMILES CC(C)C[C@@H](C)N(C)C(=O)[C@H](/C(N)=N/O)C(C)C
REMARK SMILES IDX 9 1 10 2 7 3 8 4 5 5 6 6 4 7 2 8 1 9 3 10 11 11 16 12 17 13
REMARK SMILES IDX 18 14 12 15 14 16 13 17 15 20
REMARK H PARENT 13 18 13 19 15 21
ROOT
ATOM      1  C   UNL     1      49.811  50.156  18.571  1.00  0.00    +0.233 C 
ATOM      2  O   UNL     1      49.982  49.050  19.091  1.00  0.00    -0.274 OA
ENDROOT
BRANCH   1   3
ATOM      3  N   UNL     1      48.841  50.338  17.569  1.00  0.00    -0.342 N 
ATOM      4  C   UNL     1      48.256  51.645  17.270  1.00  0.00    +0.147 C 
BRANCH   3   5
ATOM      5  C   UNL     1      48.747  49.290  16.519  1.00  0.00    +0.081 C 
ATOM      6  C   UNL     1      49.616  49.682  15.318  1.00  0.00    +0.031 C 
BRANCH   5   7
ATOM      7  C   UNL     1      47.279  49.005  16.124  1.00  0.00    +0.028 C 
BRANCH   7   8
ATOM      8  C   UNL     1      46.419  48.357  17.230  1.00  0.00    -0.015 C 
ATOM      9  C   UNL     1      45.162  49.203  17.464  1.00  0.00    +0.007 C 
ATOM     10  C   UNL     1      46.014  46.917  16.925  1.00  0.00    +0.007 C 
ENDBRANCH   7   8
ENDBRANCH   5   7
ENDBRANCH   3   5
ENDBRANCH   1   3
BRANCH   1  11
ATOM     11  C   UNL     1      50.603  51.385  19.048  1.00  0.00    +0.150 C 
BRANCH  11  12
ATOM     12  C   UNL     1      50.884  51.445  20.579  1.00  0.00    +0.003 C 
ATOM     13  C   UNL     1      52.280  50.914  20.923  1.00  0.00    +0.008 C 
ATOM     14  C   UNL     1      50.657  52.812  21.232  1.00  0.00    +0.008 C 
ENDBRANCH  11  12
BRANCH  11  15
ATOM     15  C   UNL     1      51.914  51.595  18.291  1.00  0.00    +0.151 C 
ATOM     16  N   UNL     1      52.420  52.791  18.206  1.00  0.00    -0.075 NA
ATOM     17  N   UNL     1      52.504  50.498  17.704  1.00  0.00    -0.384 N 
ATOM     18  H   UNL     1      51.875  49.812  17.306  1.00  0.00    +0.158 HD
ATOM     19  H   UNL     1      53.224  50.801  17.050  1.00  0.00    +0.158 HD
BRANCH  16  20
ATOM     20  O   UNL     1      53.602  52.784  17.450  1.00  0.00    -0.409 OA
ATOM     21  H   UNL     1      53.714  51.832  17.263  1.00  0.00    +0.330 HD
ENDBRANCH  16  20
ENDBRANCH  11  15
ENDBRANCH   1  11
TORSDOF 8
ENDMDL
MODEL 4
REMARK VINA RESULT:    -5.387     11.101     13.651
REMARK INTER + INTRA:          -8.596
REMARK INTER:                  -7.402
REMARK INTRA:                  -1.194
REMARK UNBOUND:                -0.847
REMARK SMILES CC(C)C[C@@H](C)N(C)C(=O)[C@H](/C(N)=N/O)C(C)C
REMARK SMILES IDX 9 1 10 2 7 3 8 4 5 5 6 6 4 7 2 8 1 9 3 10 11 11 16 12 17 13
REMARK SMILES IDX 18 14 12 15 14 16 13 17 15 20
REMARK H PARENT 13 18 13 19 15 21
ROOT
ATOM      1  C   UNL     1      43.639  63.627  16.507  1.00  0.00    +0.233 C 
ATOM      2  O   UNL     1      42.976  63.775  15.477  1.00  0.00    -0.274 OA
ENDROOT
BRANCH   1   3
ATOM      3  N   UNL     1      43.715  62.374  17.140  1.00  0.00    -0.342 N 
ATOM      4  C   UNL     1      42.531  61.667  17.629  1.00  0.00    +0.147 C 
BRANCH   3   5
ATOM      5  C   UNL     1      44.943  61.570  16.906  1.00  0.00    +0.081 C 
ATOM      6  C   UNL     1      44.676  60.522  15.819  1.00  0.00    +0.031 C 
BRANCH   5   7
ATOM      7  C   UNL     1      45.480  60.947  18.215  1.00  0.00    +0.028 C 
BRANCH   7   8
ATOM      8  C   UNL     1      46.577  61.767  18.928  1.00  0.00    -0.015 C 
ATOM      9  C   UNL     1      47.497  62.409  17.883  1.00  0.00    +0.007 C 
ATOM     10  C   UNL     1      46.029  62.847  19.856  1.00  0.00    +0.007 C 
ENDBRANCH   7   8
ENDBRANCH   5   7
ENDBRANCH   3   5
ENDBRANCH   1   3
BRANCH   1  11
ATOM     11  C   UNL     1      44.459  64.789  17.093  1.00  0.00    +0.150 C 
BRANCH  11  12
ATOM     12  C   UNL     1      45.529  65.398  16.139  1.00  0.00    +0.003 C 
ATOM     13  C   UNL     1      46.776  65.859  16.902  1.00  0.00    +0.008 C 
ATOM     14  C   UNL     1      45.926  64.514  14.952  1.00  0.00    +0.008 C 
ENDBRANCH  11  12
BRANCH  11  15
ATOM     15  C   UNL     1      43.596  65.916  17.660  1.00  0.00    +0.151 C 
ATOM     16  N   UNL     1      42.953  65.730  18.776  1.00  0.00    -0.075 NA
ATOM     17  N   UNL     1      43.517  67.091  16.947  1.00  0.00    -0.384 N 
ATOM     18  H   UNL     1      43.510  67.002  15.938  1.00  0.00    +0.158 HD
ATOM     19  H   UNL     1      42.747  67.658  17.298  1.00  0.00    +0.158 HD
BRANCH  16  20
ATOM     20  O   UNL     1      42.196  66.862  19.115  1.00  0.00    -0.409 OA
ATOM     21  H   UNL     1      42.394  66.958  20.066  1.00  0.00    +0.330 HD
ENDBRANCH  16  20
ENDBRANCH  11  15
ENDBRANCH   1  11
TORSDOF 8
ENDMDL
MODEL 5
REMARK VINA RESULT:    -5.201     10.576     13.392
REMARK INTER + INTRA:          -8.328
REMARK INTER:                  -7.060
REMARK INTRA:                  -1.268
REMARK UNBOUND:                -0.847
REMARK SMILES CC(C)C[C@@H](C)N(C)C(=O)[C@H](/C(N)=N/O)C(C)C
REMARK SMILES IDX 9 1 10 2 7 3 8 4 5 5 6 6 4 7 2 8 1 9 3 10 11 11 16 12 17 13
REMARK SMILES IDX 18 14 12 15 14 16 13 17 15 20
REMARK H PARENT 13 18 13 19 15 21
ROOT
ATOM      1  C   UNL     1      43.320  64.148  18.151  1.00  0.00    +0.233 C 
ATOM      2  O   UNL     1      43.009  65.098  18.873  1.00  0.00    -0.274 OA
ENDROOT
BRANCH   1   3
ATOM      3  N   UNL     1      42.831  62.855  18.412  1.00  0.00    -0.342 N 
ATOM      4  C   UNL     1      41.417  62.589  18.676  1.00  0.00    +0.147 C 
BRANCH   3   5
ATOM      5  C   UNL     1      43.672  61.711  17.972  1.00  0.00    +0.081 C 
ATOM      6  C   UNL     1      42.781  60.605  17.395  1.00  0.00    +0.031 C 
BRANCH   5   7
ATOM      7  C   UNL     1      44.590  61.204  19.109  1.00  0.00    +0.028 C 
BRANCH   7   8
ATOM      8  C   UNL     1      46.086  61.548  18.944  1.00  0.00    -0.015 C 
ATOM      9  C   UNL     1      46.431  62.765  19.809  1.00  0.00    +0.007 C 
ATOM     10  C   UNL     1      47.021  60.393  19.293  1.00  0.00    +0.007 C 
ENDBRANCH   7   8
ENDBRANCH   5   7
ENDBRANCH   3   5
ENDBRANCH   1   3
BRANCH   1  11
ATOM     11  C   UNL     1      44.195  64.356  16.902  1.00  0.00    +0.150 C 
BRANCH  11  12
ATOM     12  C   UNL     1      43.424  64.417  15.550  1.00  0.00    +0.003 C 
ATOM     13  C   UNL     1      43.655  63.159  14.705  1.00  0.00    +0.008 C 
ATOM     14  C   UNL     1      41.925  64.714  15.665  1.00  0.00    +0.008 C 
ENDBRANCH  11  12
BRANCH  11  15
ATOM     15  C   UNL     1      45.120  65.567  17.005  1.00  0.00    +0.151 C 
ATOM     16  N   UNL     1      46.409  65.388  17.026  1.00  0.00    -0.075 NA
ATOM     17  N   UNL     1      44.545  66.815  17.092  1.00  0.00    -0.384 N 
ATOM     18  H   UNL     1      43.688  66.875  17.627  1.00  0.00    +0.158 HD
ATOM     19  H   UNL     1      45.242  67.498  17.386  1.00  0.00    +0.158 HD
BRANCH  16  20
ATOM     20  O   UNL     1      47.085  66.612  17.153  1.00  0.00    -0.409 OA
ATOM     21  H   UNL     1      46.348  67.231  17.315  1.00  0.00    +0.330 HD
ENDBRANCH  16  20
ENDBRANCH  11  15
ENDBRANCH   1  11
TORSDOF 8
ENDMDL
