MODEL 1
REMARK VINA RESULT:    -6.332      0.000      0.000
REMARK INTER + INTRA:          -9.596
REMARK INTER:                  -8.738
REMARK INTRA:                  -0.858
REMARK UNBOUND:                -0.858
REMARK SMILES CC(C)[C@@H](C(=O)N(C)CC(F)(F)F)/C(N)=N/O
REMARK SMILES IDX 5 1 6 2 4 3 2 4 1 5 3 6 14 7 16 8 15 9 17 12 7 14 8 15 9 16
REMARK SMILES IDX 10 17 11 18 12 19 13 20
REMARK H PARENT 15 10 15 11 17 13
ROOT
ATOM      1  C   UNL     1      51.112  55.414  19.604  1.00  0.00    +0.233 C 
ATOM      2  O   UNL     1      51.818  55.825  18.681  1.00  0.00    -0.274 OA
ENDROOT
BRANCH   1   3
ATOM      3  C   UNL     1      50.815  56.283  20.830  1.00  0.00    +0.150 C 
BRANCH   3   4
ATOM      4  C   UNL     1      49.635  57.285  20.668  1.00  0.00    +0.003 C 
ATOM      5  C   UNL     1      48.357  56.704  20.055  1.00  0.00    +0.008 C 
ATOM      6  C   UNL     1      49.315  57.998  21.986  1.00  0.00    +0.008 C 
ENDBRANCH   3   4
BRANCH   3   7
ATOM      7  C   UNL     1      52.054  57.025  21.330  1.00  0.00    +0.151 C 
ATOM      8  N   UNL     1      52.691  56.506  22.342  1.00  0.00    -0.075 NA
ATOM      9  N   UNL     1      52.440  58.194  20.725  1.00  0.00    -0.384 N 
ATOM     10  H   UNL     1      53.096  58.717  21.298  1.00  0.00    +0.158 HD
ATOM     11  H   UNL     1      51.720  58.766  20.293  1.00  0.00    +0.158 HD
BRANCH   8  12
ATOM     12  O   UNL     1      53.784  57.310  22.705  1.00  0.00    -0.409 OA
ATOM     13  H   UNL     1      53.554  57.570  23.616  1.00  0.00    +0.330 HD
ENDBRANCH   8  12
ENDBRANCH   3   7
ENDBRANCH   1   3
BRANCH   1  14
ATOM     14  N   UNL     1      50.575  54.125  19.554  1.00  0.00    -0.336 N 
ATOM     15  C   UNL     1      49.902  53.574  18.383  1.00  0.00    +0.147 C 
BRANCH  14  16
ATOM     16  C   UNL     1      50.233  53.508  20.852  1.00  0.00    +0.234 C 
BRANCH  16  17
ATOM     17  C   UNL     1      51.373  52.750  21.539  1.00  0.00    +0.406 C 
ATOM     18  F   UNL     1      52.388  52.529  20.670  1.00  0.00    -0.169 F 
ATOM     19  F   UNL     1      50.951  51.537  21.971  1.00  0.00    -0.169 F 
ATOM     20  F   UNL     1      51.881  53.408  22.602  1.00  0.00    -0.169 F 
ENDBRANCH  16  17
ENDBRANCH  14  16
ENDBRANCH   1  14
TORSDOF 7
ENDMDL
MODEL 2
REMARK VINA RESULT:    -6.124      3.124      4.888
REMARK INTER + INTRA:          -9.309
REMARK INTER:                  -8.743
REMARK INTRA:                  -0.566
REMARK UNBOUND:                -0.858
REMARK SMILES CC(C)[C@@H](C(=O)N(C)CC(F)(F)F)/C(N)=N/O
REMARK SMILES IDX 5 1 6 2 4 3 2 4 1 5 3 6 14 7 16 8 15 9 17 12 7 14 8 15 9 16
REMARK SMILES IDX 10 17 11 18 12 19 13 20
REMARK H PARENT 15 10 15 11 17 13
ROOT
ATOM      1  C   UNL     1      50.935  55.587  19.306  1.00  0.00    +0.233 C 
ATOM      2  O   UNL     1      51.948  56.281  19.196  1.00  0.00    -0.274 OA
ENDROOT
BRANCH   1   3
ATOM      3  C   UNL     1      51.014  54.119  19.735  1.00  0.00    +0.150 C 
BRANCH   3   4
ATOM      4  C   UNL     1      51.766  53.854  21.071  1.00  0.00    +0.003 C 
ATOM      5  C   UNL     1      51.577  54.919  22.156  1.00  0.00    +0.008 C 
ATOM      6  C   UNL     1      51.447  52.464  21.633  1.00  0.00    +0.008 C 
ENDBRANCH   3   4
BRANCH   3   7
ATOM      7  C   UNL     1      51.588  53.223  18.637  1.00  0.00    +0.151 C 
ATOM      8  N   UNL     1      52.870  53.297  18.417  1.00  0.00    -0.075 NA
ATOM      9  N   UNL     1      50.755  52.400  17.923  1.00  0.00    -0.384 N 
ATOM     10  H   UNL     1      51.194  52.066  17.070  1.00  0.00    +0.158 HD
ATOM     11  H   UNL     1      49.788  52.688  17.805  1.00  0.00    +0.158 HD
BRANCH   8  12
ATOM     12  O   UNL     1      53.244  52.443  17.367  1.00  0.00    -0.409 OA
ATOM     13  H   UNL     1      54.055  52.870  17.034  1.00  0.00    +0.330 HD
ENDBRANCH   8  12
ENDBRANCH   3   7
ENDBRANCH   1   3
BRANCH   1  14
ATOM     14  N   UNL     1      49.680  56.132  19.023  1.00  0.00    -0.336 N 
ATOM     15  C   UNL     1      48.861  55.729  17.884  1.00  0.00    +0.147 C 
BRANCH  14  16
ATOM     16  C   UNL     1      49.410  57.475  19.576  1.00  0.00    +0.234 C 
BRANCH  16  17
ATOM     17  C   UNL     1      48.504  57.505  20.811  1.00  0.00    +0.406 C 
ATOM     18  F   UNL     1      47.452  56.668  20.649  1.00  0.00    -0.169 F 
ATOM     19  F   UNL     1      47.994  58.747  21.002  1.00  0.00    -0.169 F 
ATOM     20  F   UNL     1      49.142  57.147  21.944  1.00  0.00    -0.169 F 
ENDBRANCH  16  17
ENDBRANCH  14  16
ENDBRANCH   1  14
TORSDOF 7
ENDMDL
MODEL 3
REMARK VINA RESULT:    -6.072      5.189      6.498
REMARK INTER + INTRA:          -9.237
REMARK INTER:                  -8.556
REMARK INTRA:                  -0.681
REMARK UNBOUND:                -0.858
REMARK SMILES CC(C)[C@@H](C(=O)N(C)CC(F)(F)F)/C(N)=N/O
REMARK SMILES IDX 5 1 6 2 4 3 2 4 1 5 3 6 14 7 16 8 15 9 17 12 7 14 8 15 9 16
REMARK SMILES IDX 10 17 11 18 12 19 13 20
REMARK H PARENT 15 10 15 11 17 13
ROOT
ATOM      1  C   UNL     1      51.407  50.968  18.008  1.00  0.00    +0.233 C 
ATOM      2  O   UNL     1      52.445  50.813  17.361  1.00  0.00    -0.274 OA
ENDROOT
BRANCH   1   3
ATOM      3  C   UNL     1      51.392  50.845  19.535  1.00  0.00    +0.150 C 
BRANCH   3   4
ATOM      4  C   UNL     1      52.255  51.892  20.297  1.00  0.00    +0.003 C 
ATOM      5  C   UNL     1      52.388  53.258  19.616  1.00  0.00    +0.008 C 
ATOM      6  C   UNL     1      51.784  52.066  21.745  1.00  0.00    +0.008 C 
ENDBRANCH   3   4
BRANCH   3   7
ATOM      7  C   UNL     1      51.755  49.438  20.008  1.00  0.00    +0.151 C 
ATOM      8  N   UNL     1      50.817  48.743  20.587  1.00  0.00    -0.075 NA
ATOM      9  N   UNL     1      53.031  48.966  19.828  1.00  0.00    -0.384 N 
ATOM     10  H   UNL     1      53.216  48.151  20.406  1.00  0.00    +0.158 HD
ATOM     11  H   UNL     1      53.789  49.641  19.808  1.00  0.00    +0.158 HD
BRANCH   8  12
ATOM     12  O   UNL     1      51.305  47.490  20.991  1.00  0.00    -0.409 OA
ATOM     13  H   UNL     1      50.596  47.174  21.581  1.00  0.00    +0.330 HD
ENDBRANCH   8  12
ENDBRANCH   3   7
ENDBRANCH   1   3
BRANCH   1  14
ATOM     14  N   UNL     1      50.207  51.246  17.350  1.00  0.00    -0.336 N 
ATOM     15  C   UNL     1      49.377  52.411  17.638  1.00  0.00    +0.147 C 
BRANCH  14  16
ATOM     16  C   UNL     1      49.521  50.096  16.727  1.00  0.00    +0.234 C 
BRANCH  16  17
ATOM     17  C   UNL     1      48.241  49.636  17.432  1.00  0.00    +0.406 C 
ATOM     18  F   UNL     1      48.406  49.656  18.776  1.00  0.00    -0.169 F 
ATOM     19  F   UNL     1      47.937  48.360  17.091  1.00  0.00    -0.169 F 
ATOM     20  F   UNL     1      47.170  50.403  17.140  1.00  0.00    -0.169 F 
ENDBRANCH  16  17
ENDBRANCH  14  16
ENDBRANCH   1  14
TORSDOF 7
ENDMDL
MODEL 4
REMARK VINA RESULT:    -6.064      1.993      2.463
REMARK INTER + INTRA:          -9.227
REMARK INTER:                  -8.370
REMARK INTRA:                  -0.857
REMARK UNBOUND:                -0.858
REMARK SMILES CC(C)[C@@H](C(=O)N(C)CC(F)(F)F)/C(N)=N/O
REMARK SMILES IDX 5 1 6 2 4 3 2 4 1 5 3 6 14 7 16 8 15 9 17 12 7 14 8 15 9 16
REMARK SMILES IDX 10 17 11 18 12 19 13 20
REMARK H PARENT 15 10 15 11 17 13
ROOT
ATOM      1  C   UNL     1      51.520  54.146  19.900  1.00  0.00    +0.233 C 
ATOM      2  O   UNL     1      51.984  54.378  18.781  1.00  0.00    -0.274 OA
ENDROOT
BRANCH   1   3
ATOM      3  C   UNL     1      51.056  55.277  20.822  1.00  0.00    +0.150 C 
BRANCH   3   4
ATOM      4  C   UNL     1      49.827  56.088  20.317  1.00  0.00    +0.003 C 
ATOM      5  C   UNL     1      48.659  55.252  19.787  1.00  0.00    +0.008 C 
ATOM      6  C   UNL     1      49.332  57.081  21.374  1.00  0.00    +0.008 C 
ENDBRANCH   3   4
BRANCH   3   7
ATOM      7  C   UNL     1      52.190  56.236  21.183  1.00  0.00    +0.151 C 
ATOM      8  N   UNL     1      52.558  56.281  22.432  1.00  0.00    -0.075 NA
ATOM      9  N   UNL     1      52.763  57.013  20.208  1.00  0.00    -0.384 N 
ATOM     10  H   UNL     1      53.302  57.778  20.603  1.00  0.00    +0.158 HD
ATOM     11  H   UNL     1      52.189  57.278  19.413  1.00  0.00    +0.158 HD
BRANCH   8  12
ATOM     12  O   UNL     1      53.584  57.222  22.614  1.00  0.00    -0.409 OA
ATOM     13  H   UNL     1      53.875  57.036  23.526  1.00  0.00    +0.330 HD
ENDBRANCH   8  12
ENDBRANCH   3   7
ENDBRANCH   1   3
BRANCH   1  14
ATOM     14  N   UNL     1      51.424  52.830  20.358  1.00  0.00    -0.336 N 
ATOM     15  C   UNL     1      51.578  52.447  21.757  1.00  0.00    +0.147 C 
BRANCH  14  16
ATOM     16  C   UNL     1      51.679  51.770  19.361  1.00  0.00    +0.234 C 
BRANCH  16  17
ATOM     17  C   UNL     1      50.431  51.066  18.818  1.00  0.00    +0.406 C 
ATOM     18  F   UNL     1      50.693  50.496  17.618  1.00  0.00    -0.169 F 
ATOM     19  F   UNL     1      49.426  51.954  18.622  1.00  0.00    -0.169 F 
ATOM     20  F   UNL     1      49.969  50.100  19.638  1.00  0.00    -0.169 F 
ENDBRANCH  16  17
ENDBRANCH  14  16
ENDBRANCH   1  14
TORSDOF 7
ENDMDL
MODEL 5
REMARK VINA RESULT:    -5.876      2.900      5.387
REMARK INTER + INTRA:          -8.967
REMARK INTER:                  -8.100
REMARK INTRA:                  -0.866
REMARK UNBOUND:                -0.858
REMARK SMILES CC(C)[C@@H](C(=O)N(C)CC(F)(F)F)/C(N)=N/O
REMARK SMILES IDX 5 1 6 2 4 3 2 4 1 5 3 6 14 7 16 8 15 9 17 12 7 14 8 15 9 16
REMARK SMILES IDX 10 17 11 18 12 19 13 20
REMARK H PARENT 15 10 15 11 17 13
ROOT
ATOM      1  C   UNL     1      51.142  53.986  19.178  1.00  0.00    +0.233 C 
ATOM      2  O   UNL     1      52.205  54.500  18.823  1.00  0.00    -0.274 OA
ENDROOT
BRANCH   1   3
ATOM      3  C   UNL     1      51.000  52.469  19.332  1.00  0.00    +0.150 C 
BRANCH   3   4
ATOM      4  C   UNL     1      51.707  51.856  20.575  1.00  0.00    +0.003 C 
ATOM      5  C   UNL     1      51.662  52.709  21.846  1.00  0.00    +0.008 C 
ATOM      6  C   UNL     1      51.205  50.438  20.869  1.00  0.00    +0.008 C 
ENDBRANCH   3   4
BRANCH   3   7
ATOM      7  C   UNL     1      51.428  51.715  18.073  1.00  0.00    +0.151 C 
ATOM      8  N   UNL     1      50.502  51.070  17.421  1.00  0.00    -0.075 NA
ATOM      9  N   UNL     1      52.744  51.726  17.685  1.00  0.00    -0.384 N 
ATOM     10  H   UNL     1      52.945  50.993  17.011  1.00  0.00    +0.158 HD
ATOM     11  H   UNL     1      53.451  51.830  18.407  1.00  0.00    +0.158 HD
BRANCH   8  12
ATOM     12  O   UNL     1      51.048  50.406  16.311  1.00  0.00    -0.409 OA
ATOM     13  H   UNL     1      51.440  51.141  15.804  1.00  0.00    +0.330 HD
ENDBRANCH   8  12
ENDBRANCH   3   7
ENDBRANCH   1   3
BRANCH   1  14
ATOM     14  N   UNL     1      50.028  54.790  19.433  1.00  0.00    -0.336 N 
ATOM     15  C   UNL     1      48.674  54.455  19.007  1.00  0.00    +0.147 C 
BRANCH  14  16
ATOM     16  C   UNL     1      50.297  56.221  19.681  1.00  0.00    +0.234 C 
BRANCH  16  17
ATOM     17  C   UNL     1      50.107  56.683  21.130  1.00  0.00    +0.406 C 
ATOM     18  F   UNL     1      50.767  57.844  21.348  1.00  0.00    -0.169 F 
ATOM     19  F   UNL     1      50.615  55.771  21.995  1.00  0.00    -0.169 F 
ATOM     20  F   UNL     1      48.813  56.880  21.457  1.00  0.00    -0.169 F 
ENDBRANCH  16  17
ENDBRANCH  14  16
ENDBRANCH   1  14
TORSDOF 7
ENDMDL
