MODEL 1
REMARK VINA RESULT:    -7.138      0.000      0.000
REMARK INTER + INTRA:         -11.256
REMARK INTER:                 -10.477
REMARK INTRA:                  -0.779
REMARK UNBOUND:                -0.779
REMARK SMILES CCCNC(=O)NCC(=O)N(CC)Cc1ccccc1
REMARK SMILES IDX 8 1 7 2 4 3 5 4 6 5 3 8 2 9 1 10 9 11 10 12 11 13 12 14
REMARK SMILES IDX 13 15 14 16 15 17 16 18 20 19 17 20 19 21 18 22
REMARK H PARENT 4 6 7 7
ROOT
ATOM      1  C   UNL     1      51.412  52.683  20.250  1.00  0.00    +0.218 C 
ENDROOT
BRANCH   1   2
ATOM      2  N   UNL     1      50.430  52.077  19.363  1.00  0.00    -0.329 N 
ATOM      3  N   UNL     1      49.366  50.295  18.445  1.00  0.00    -0.338 N 
ATOM      4  C   UNL     1      50.163  50.737  19.470  1.00  0.00    +0.315 C 
ATOM      5  O   UNL     1      50.549  50.034  20.394  1.00  0.00    -0.249 OA
ATOM      6  H   UNL     1      49.429  50.821  17.587  1.00  0.00    +0.165 HD
ATOM      7  H   UNL     1      50.459  52.435  18.418  1.00  0.00    +0.165 HD
BRANCH   3   8
ATOM      8  C   UNL     1      49.054  48.885  18.328  1.00  0.00    +0.117 C 
BRANCH   8   9
ATOM      9  C   UNL     1      47.548  48.650  18.334  1.00  0.00    +0.018 C 
ATOM     10  C   UNL     1      46.806  49.766  17.618  1.00  0.00    +0.006 C 
ENDBRANCH   8   9
ENDBRANCH   3   8
ENDBRANCH   1   2
BRANCH   1  11
ATOM     11  C   UNL     1      52.040  53.893  19.542  1.00  0.00    +0.242 C 
ATOM     12  O   UNL     1      52.618  53.729  18.460  1.00  0.00    -0.273 OA
BRANCH  11  13
ATOM     13  N   UNL     1      51.883  55.152  20.111  1.00  0.00    -0.337 N 
BRANCH  13  14
ATOM     14  C   UNL     1      52.522  56.375  19.616  1.00  0.00    +0.116 C 
ATOM     15  C   UNL     1      53.394  57.064  20.655  1.00  0.00    +0.027 C 
ENDBRANCH  13  14
BRANCH  13  16
ATOM     16  C   UNL     1      51.051  55.269  21.312  1.00  0.00    +0.155 C 
BRANCH  16  17
ATOM     17  C   UNL     1      49.875  56.196  21.125  1.00  0.00    -0.029 A 
ATOM     18  C   UNL     1      48.857  55.890  20.210  1.00  0.00    +0.005 A 
ATOM     19  C   UNL     1      49.787  57.385  21.863  1.00  0.00    +0.005 A 
ATOM     20  C   UNL     1      47.777  56.757  20.036  1.00  0.00    +0.000 A 
ATOM     21  C   UNL     1      48.706  58.250  21.688  1.00  0.00    +0.000 A 
ATOM     22  C   UNL     1      47.702  57.937  20.774  1.00  0.00    +0.000 A 
ENDBRANCH  16  17
ENDBRANCH  13  16
ENDBRANCH  11  13
ENDBRANCH   1  11
TORSDOF 8
ENDMDL
MODEL 2
REMARK VINA RESULT:    -7.137      1.292      2.022
REMARK INTER + INTRA:         -11.254
REMARK INTER:                 -10.712
REMARK INTRA:                  -0.541
REMARK UNBOUND:                -0.779
REMARK SMILES CCCNC(=O)NCC(=O)N(CC)Cc1ccccc1
REMARK SMILES IDX 8 1 7 2 4 3 5 4 6 5 3 8 2 9 1 10 9 11 10 12 11 13 12 14
REMARK SMILES IDX 13 15 14 16 15 17 16 18 20 19 17 20 19 21 18 22
REMARK H PARENT 4 6 7 7
ROOT
ATOM      1  C   UNL     1      52.244  52.110  18.838  1.00  0.00    +0.218 C 
ENDROOT
BRANCH   1   2
ATOM      2  N   UNL     1      51.208  51.467  18.044  1.00  0.00    -0.329 N 
ATOM      3  N   UNL     1      49.700  49.817  17.647  1.00  0.00    -0.338 N 
ATOM      4  C   UNL     1      50.494  50.429  18.583  1.00  0.00    +0.315 C 
ATOM      5  O   UNL     1      50.526  50.118  19.767  1.00  0.00    -0.249 OA
ATOM      6  H   UNL     1      50.023  49.884  16.693  1.00  0.00    +0.165 HD
ATOM      7  H   UNL     1      51.451  51.360  17.068  1.00  0.00    +0.165 HD
BRANCH   3   8
ATOM      8  C   UNL     1      48.942  48.634  18.001  1.00  0.00    +0.117 C 
BRANCH   8   9
ATOM      9  C   UNL     1      47.478  48.972  18.257  1.00  0.00    +0.018 C 
ATOM     10  C   UNL     1      47.001  50.099  17.357  1.00  0.00    +0.006 C 
ENDBRANCH   8   9
ENDBRANCH   3   8
ENDBRANCH   1   2
BRANCH   1  11
ATOM     11  C   UNL     1      51.778  53.527  19.206  1.00  0.00    +0.242 C 
ATOM     12  O   UNL     1      52.394  54.503  18.759  1.00  0.00    -0.273 OA
BRANCH  11  13
ATOM     13  N   UNL     1      50.633  53.670  19.983  1.00  0.00    -0.337 N 
BRANCH  13  14
ATOM     14  C   UNL     1      50.454  53.088  21.316  1.00  0.00    +0.116 C 
ATOM     15  C   UNL     1      51.670  53.251  22.215  1.00  0.00    +0.027 C 
ENDBRANCH  13  14
BRANCH  13  16
ATOM     16  C   UNL     1      49.508  54.423  19.424  1.00  0.00    +0.155 C 
BRANCH  16  17
ATOM     17  C   UNL     1      49.239  55.713  20.160  1.00  0.00    -0.029 A 
ATOM     18  C   UNL     1      50.194  56.255  21.032  1.00  0.00    +0.005 A 
ATOM     19  C   UNL     1      48.021  56.387  19.985  1.00  0.00    +0.005 A 
ATOM     20  C   UNL     1      49.934  57.444  21.717  1.00  0.00    +0.000 A 
ATOM     21  C   UNL     1      47.764  57.575  20.670  1.00  0.00    +0.000 A 
ATOM     22  C   UNL     1      48.720  58.102  21.537  1.00  0.00    +0.000 A 
ENDBRANCH  16  17
ENDBRANCH  13  16
ENDBRANCH  11  13
ENDBRANCH   1  11
TORSDOF 8
ENDMDL
MODEL 3
REMARK VINA RESULT:    -6.521      1.805      6.899
REMARK INTER + INTRA:         -10.350
REMARK INTER:                  -9.831
REMARK INTRA:                  -0.520
REMARK UNBOUND:                -0.779
REMARK SMILES CCCNC(=O)NCC(=O)N(CC)Cc1ccccc1
REMARK SMILES IDX 8 1 7 2 4 3 5 4 6 5 3 8 2 9 1 10 9 11 10 12 11 13 12 14
REMARK SMILES IDX 13 15 14 16 15 17 16 18 20 19 17 20 19 21 18 22
REMARK H PARENT 4 6 7 7
ROOT
ATOM      1  C   UNL     1      50.634  53.193  18.497  1.00  0.00    +0.218 C 
ENDROOT
BRANCH   1   2
ATOM      2  N   UNL     1      49.764  54.286  18.904  1.00  0.00    -0.329 N 
ATOM      3  N   UNL     1      49.368  56.292  19.890  1.00  0.00    -0.338 N 
ATOM      4  C   UNL     1      50.319  55.447  19.376  1.00  0.00    +0.315 C 
ATOM      5  O   UNL     1      51.510  55.717  19.301  1.00  0.00    -0.249 OA
ATOM      6  H   UNL     1      48.535  55.845  20.243  1.00  0.00    +0.165 HD
ATOM      7  H   UNL     1      48.928  53.983  19.385  1.00  0.00    +0.165 HD
BRANCH   3   8
ATOM      8  C   UNL     1      49.768  57.530  20.527  1.00  0.00    +0.117 C 
BRANCH   8   9
ATOM      9  C   UNL     1      48.653  58.083  21.408  1.00  0.00    +0.018 C 
ATOM     10  C   UNL     1      47.321  58.097  20.678  1.00  0.00    +0.006 C 
ENDBRANCH   8   9
ENDBRANCH   3   8
ENDBRANCH   1   2
BRANCH   1  11
ATOM     11  C   UNL     1      50.653  52.133  19.609  1.00  0.00    +0.242 C 
ATOM     12  O   UNL     1      50.488  52.484  20.784  1.00  0.00    -0.273 OA
BRANCH  11  13
ATOM     13  N   UNL     1      50.792  50.796  19.252  1.00  0.00    -0.337 N 
BRANCH  13  14
ATOM     14  C   UNL     1      51.418  49.771  20.092  1.00  0.00    +0.116 C 
ATOM     15  C   UNL     1      52.909  49.609  19.837  1.00  0.00    +0.027 C 
ENDBRANCH  13  14
BRANCH  13  16
ATOM     16  C   UNL     1      50.316  50.381  17.930  1.00  0.00    +0.155 C 
BRANCH  16  17
ATOM     17  C   UNL     1      48.857  49.992  17.926  1.00  0.00    -0.029 A 
ATOM     18  C   UNL     1      48.406  48.888  18.662  1.00  0.00    +0.005 A 
ATOM     19  C   UNL     1      47.930  50.732  17.177  1.00  0.00    +0.005 A 
ATOM     20  C   UNL     1      47.057  48.529  18.645  1.00  0.00    +0.000 A 
ATOM     21  C   UNL     1      46.582  50.372  17.162  1.00  0.00    +0.000 A 
ATOM     22  C   UNL     1      46.146  49.270  17.895  1.00  0.00    +0.000 A 
ENDBRANCH  16  17
ENDBRANCH  13  16
ENDBRANCH  11  13
ENDBRANCH   1  11
TORSDOF 8
ENDMDL
MODEL 4
REMARK VINA RESULT:    -5.978      2.069      3.178
REMARK INTER + INTRA:          -9.553
REMARK INTER:                  -8.875
REMARK INTRA:                  -0.678
REMARK UNBOUND:                -0.779
REMARK SMILES CCCNC(=O)NCC(=O)N(CC)Cc1ccccc1
REMARK SMILES IDX 8 1 7 2 4 3 5 4 6 5 3 8 2 9 1 10 9 11 10 12 11 13 12 14
REMARK SMILES IDX 13 15 14 16 15 17 16 18 20 19 17 20 19 21 18 22
REMARK H PARENT 4 6 7 7
ROOT
ATOM      1  C   UNL     1      49.689  53.131  18.415  1.00  0.00    +0.218 C 
ENDROOT
BRANCH   1   2
ATOM      2  N   UNL     1      49.757  52.462  17.125  1.00  0.00    -0.329 N 
ATOM      3  N   UNL     1      49.644  50.626  15.794  1.00  0.00    -0.338 N 
ATOM      4  C   UNL     1      49.336  51.161  17.019  1.00  0.00    +0.315 C 
ATOM      5  O   UNL     1      48.720  50.568  17.893  1.00  0.00    -0.249 OA
ATOM      6  H   UNL     1      50.443  51.032  15.331  1.00  0.00    +0.165 HD
ATOM      7  H   UNL     1      50.583  52.691  16.590  1.00  0.00    +0.165 HD
BRANCH   3   8
ATOM      8  C   UNL     1      49.369  49.229  15.524  1.00  0.00    +0.117 C 
BRANCH   8   9
ATOM      9  C   UNL     1      48.089  49.065  14.714  1.00  0.00    +0.018 C 
ATOM     10  C   UNL     1      47.118  48.114  15.393  1.00  0.00    +0.006 C 
ENDBRANCH   8   9
ENDBRANCH   3   8
ENDBRANCH   1   2
BRANCH   1  11
ATOM     11  C   UNL     1      51.102  53.199  19.014  1.00  0.00    +0.242 C 
ATOM     12  O   UNL     1      52.030  53.648  18.329  1.00  0.00    -0.273 OA
BRANCH  11  13
ATOM     13  N   UNL     1      51.283  52.810  20.337  1.00  0.00    -0.337 N 
BRANCH  13  14
ATOM     14  C   UNL     1      52.187  51.743  20.775  1.00  0.00    +0.116 C 
ATOM     15  C   UNL     1      52.377  50.648  19.736  1.00  0.00    +0.027 C 
ENDBRANCH  13  14
BRANCH  13  16
ATOM     16  C   UNL     1      50.493  53.486  21.370  1.00  0.00    +0.155 C 
BRANCH  16  17
ATOM     17  C   UNL     1      50.767  54.969  21.445  1.00  0.00    -0.029 A 
ATOM     18  C   UNL     1      51.934  55.454  22.050  1.00  0.00    +0.005 A 
ATOM     19  C   UNL     1      49.849  55.885  20.911  1.00  0.00    +0.005 A 
ATOM     20  C   UNL     1      52.175  56.827  22.124  1.00  0.00    +0.000 A 
ATOM     21  C   UNL     1      50.092  57.257  20.985  1.00  0.00    +0.000 A 
ATOM     22  C   UNL     1      51.255  57.728  21.592  1.00  0.00    +0.000 A 
ENDBRANCH  16  17
ENDBRANCH  13  16
ENDBRANCH  11  13
ENDBRANCH   1  11
TORSDOF 8
ENDMDL
MODEL 5
REMARK VINA RESULT:    -5.466      8.225     10.808
REMARK INTER + INTRA:          -8.802
REMARK INTER:                  -7.377
REMARK INTRA:                  -1.424
REMARK UNBOUND:                -0.779
REMARK SMILES CCCNC(=O)NCC(=O)N(CC)Cc1ccccc1
REMARK SMILES IDX 8 1 7 2 4 3 5 4 6 5 3 8 2 9 1 10 9 11 10 12 11 13 12 14
REMARK SMILES IDX 13 15 14 16 15 17 16 18 20 19 17 20 19 21 18 22
REMARK H PARENT 4 6 7 7
ROOT
ATOM      1  C   UNL     1      44.258  63.399  15.302  1.00  0.00    +0.218 C 
ENDROOT
BRANCH   1   2
ATOM      2  N   UNL     1      44.947  62.163  14.960  1.00  0.00    -0.329 N 
ATOM      3  N   UNL     1      45.547  60.010  15.356  1.00  0.00    -0.338 N 
ATOM      4  C   UNL     1      44.683  61.026  15.679  1.00  0.00    +0.315 C 
ATOM      5  O   UNL     1      43.760  60.917  16.474  1.00  0.00    -0.249 OA
ATOM      6  H   UNL     1      46.450  60.301  15.013  1.00  0.00    +0.165 HD
ATOM      7  H   UNL     1      45.915  62.294  14.703  1.00  0.00    +0.165 HD
BRANCH   3   8
ATOM      8  C   UNL     1      45.492  58.756  16.080  1.00  0.00    +0.117 C 
BRANCH   8   9
ATOM      9  C   UNL     1      46.783  57.964  15.910  1.00  0.00    +0.018 C 
ATOM     10  C   UNL     1      47.555  57.870  17.216  1.00  0.00    +0.006 C 
ENDBRANCH   8   9
ENDBRANCH   3   8
ENDBRANCH   1   2
BRANCH   1  11
ATOM     11  C   UNL     1      45.284  64.543  15.342  1.00  0.00    +0.242 C 
ATOM     12  O   UNL     1      45.937  64.807  14.324  1.00  0.00    -0.273 OA
BRANCH  11  13
ATOM     13  N   UNL     1      45.400  65.292  16.508  1.00  0.00    -0.337 N 
BRANCH  13  14
ATOM     14  C   UNL     1      44.481  66.362  16.905  1.00  0.00    +0.116 C 
ATOM     15  C   UNL     1      43.357  65.886  17.813  1.00  0.00    +0.027 C 
ENDBRANCH  13  14
BRANCH  13  16
ATOM     16  C   UNL     1      46.539  65.024  17.390  1.00  0.00    +0.155 C 
BRANCH  16  17
ATOM     17  C   UNL     1      46.497  63.646  18.004  1.00  0.00    -0.029 A 
ATOM     18  C   UNL     1      47.464  62.685  17.679  1.00  0.00    +0.005 A 
ATOM     19  C   UNL     1      45.480  63.306  18.908  1.00  0.00    +0.005 A 
ATOM     20  C   UNL     1      47.413  61.410  18.244  1.00  0.00    +0.000 A 
ATOM     21  C   UNL     1      45.431  62.030  19.473  1.00  0.00    +0.000 A 
ATOM     22  C   UNL     1      46.397  61.082  19.139  1.00  0.00    +0.000 A 
ENDBRANCH  16  17
ENDBRANCH  13  16
ENDBRANCH  11  13
ENDBRANCH   1  11
TORSDOF 8
ENDMDL
