MODEL 1
REMARK VINA RESULT:    -8.455      0.000      0.000
REMARK INTER + INTRA:         -10.431
REMARK INTER:                  -9.938
REMARK INTRA:                  -0.493
REMARK UNBOUND:                -0.493
REMARK SMILES C[C@@H](NC(=O)Nc1nccs1)c1ccc2c(c1)CCC(=O)N2
REMARK SMILES IDX 1 1 2 2 12 3 13 4 17 5 14 6 16 7 15 8 18 9 22 10 19 11 20 12
REMARK SMILES IDX 21 13 3 15 4 16 5 17 6 18 7 21 8 22 11 23 9 24 10 25
REMARK H PARENT 22 14 3 19 6 20
ROOT
ATOM      1  C   UNL     1      52.727  50.883  19.595  1.00  0.00    +0.036 C 
ATOM      2  C   UNL     1      51.527  51.813  19.811  1.00  0.00    +0.111 C 
ENDROOT
BRANCH   2   3
ATOM      3  C   UNL     1      50.284  51.385  19.047  1.00  0.00    -0.025 A 
ATOM      4  C   UNL     1      49.709  52.275  18.124  1.00  0.00    +0.008 A 
ATOM      5  C   UNL     1      49.722  50.104  19.182  1.00  0.00    +0.011 A 
ATOM      6  C   UNL     1      48.587  51.911  17.377  1.00  0.00    +0.027 A 
ATOM      7  C   UNL     1      48.586  49.738  18.447  1.00  0.00    -0.024 A 
ATOM      8  C   UNL     1      48.023  50.650  17.551  1.00  0.00    +0.044 A 
ATOM      9  C   UNL     1      48.028  48.344  18.519  1.00  0.00    +0.047 C 
ATOM     10  N   UNL     1      46.903  50.282  16.799  1.00  0.00    -0.326 N 
ATOM     11  C   UNL     1      46.534  48.333  18.236  1.00  0.00    +0.105 C 
ATOM     12  C   UNL     1      46.184  49.135  17.004  1.00  0.00    +0.224 C 
ATOM     13  O   UNL     1      45.245  48.837  16.270  1.00  0.00    -0.275 OA
ATOM     14  H   UNL     1      46.575  50.880  16.052  1.00  0.00    +0.169 HD
ENDBRANCH   2   3
BRANCH   2  15
ATOM     15  N   UNL     1      51.849  53.186  19.452  1.00  0.00    -0.331 N 
ATOM     16  C   UNL     1      52.083  54.144  20.419  1.00  0.00    +0.321 C 
ATOM     17  O   UNL     1      51.976  53.896  21.612  1.00  0.00    -0.248 OA
ATOM     18  N   UNL     1      52.413  55.343  19.844  1.00  0.00    -0.284 N 
ATOM     19  H   UNL     1      52.271  53.329  18.548  1.00  0.00    +0.166 HD
ATOM     20  H   UNL     1      52.228  55.475  18.864  1.00  0.00    +0.174 HD
BRANCH  18  21
ATOM     21  C   UNL     1      52.763  56.501  20.489  1.00  0.00    +0.190 A 
ATOM     22  N   UNL     1      54.023  56.849  20.612  1.00  0.00    -0.228 NA
ATOM     23  S   UNL     1      51.627  57.541  21.221  1.00  0.00    -0.105 S 
ATOM     24  C   UNL     1      54.106  58.036  21.314  1.00  0.00    +0.125 A 
ATOM     25  C   UNL     1      52.903  58.566  21.726  1.00  0.00    +0.088 A 
ENDBRANCH  18  21
ENDBRANCH   2  15
TORSDOF 3
ENDMDL
MODEL 2
REMARK VINA RESULT:    -8.252      1.917      2.160
REMARK INTER + INTRA:         -10.192
REMARK INTER:                  -9.672
REMARK INTRA:                  -0.520
REMARK UNBOUND:                -0.493
REMARK SMILES C[C@@H](NC(=O)Nc1nccs1)c1ccc2c(c1)CCC(=O)N2
REMARK SMILES IDX 1 1 2 2 12 3 13 4 17 5 14 6 16 7 15 8 18 9 22 10 19 11 20 12
REMARK SMILES IDX 21 13 3 15 4 16 5 17 6 18 7 21 8 22 11 23 9 24 10 25
REMARK H PARENT 22 14 3 19 6 20
ROOT
ATOM      1  C   UNL     1      51.991  50.850  17.661  1.00  0.00    +0.036 C 
ATOM      2  C   UNL     1      50.706  51.304  18.362  1.00  0.00    +0.111 C 
ENDROOT
BRANCH   2   3
ATOM      3  C   UNL     1      49.444  50.704  17.762  1.00  0.00    -0.025 A 
ATOM      4  C   UNL     1      49.103  51.018  16.436  1.00  0.00    +0.008 A 
ATOM      5  C   UNL     1      48.636  49.794  18.464  1.00  0.00    +0.011 A 
ATOM      6  C   UNL     1      47.971  50.464  15.833  1.00  0.00    +0.027 A 
ATOM      7  C   UNL     1      47.490  49.246  17.871  1.00  0.00    -0.024 A 
ATOM      8  C   UNL     1      47.164  49.592  16.557  1.00  0.00    +0.044 A 
ATOM      9  C   UNL     1      46.668  48.207  18.580  1.00  0.00    +0.047 C 
ATOM     10  N   UNL     1      46.034  49.031  15.954  1.00  0.00    -0.326 N 
ATOM     11  C   UNL     1      45.218  48.248  18.126  1.00  0.00    +0.105 C 
ATOM     12  C   UNL     1      45.095  48.290  16.621  1.00  0.00    +0.224 C 
ATOM     13  O   UNL     1      44.155  47.774  16.022  1.00  0.00    -0.275 OA
ATOM     14  H   UNL     1      45.868  49.165  14.965  1.00  0.00    +0.169 HD
ENDBRANCH   2   3
BRANCH   2  15
ATOM     15  N   UNL     1      50.584  52.754  18.360  1.00  0.00    -0.331 N 
ATOM     16  C   UNL     1      50.390  53.459  19.532  1.00  0.00    +0.321 C 
ATOM     17  O   UNL     1      50.257  52.896  20.609  1.00  0.00    -0.248 OA
ATOM     18  N   UNL     1      50.355  54.807  19.286  1.00  0.00    -0.284 N 
ATOM     19  H   UNL     1      51.019  53.242  17.593  1.00  0.00    +0.166 HD
ATOM     20  H   UNL     1      50.232  55.122  18.338  1.00  0.00    +0.174 HD
BRANCH  18  21
ATOM     21  C   UNL     1      50.234  55.812  20.209  1.00  0.00    +0.190 A 
ATOM     22  N   UNL     1      51.243  56.143  20.981  1.00  0.00    -0.228 NA
ATOM     23  S   UNL     1      48.782  56.668  20.473  1.00  0.00    -0.105 S 
ATOM     24  C   UNL     1      50.859  57.163  21.831  1.00  0.00    +0.125 A 
ATOM     25  C   UNL     1      49.554  57.583  21.699  1.00  0.00    +0.088 A 
ENDBRANCH  18  21
ENDBRANCH   2  15
TORSDOF 3
ENDMDL
MODEL 3
REMARK VINA RESULT:    -8.202      2.674      3.991
REMARK INTER + INTRA:         -10.134
REMARK INTER:                  -9.640
REMARK INTRA:                  -0.494
REMARK UNBOUND:                -0.493
REMARK SMILES C[C@@H](NC(=O)Nc1nccs1)c1ccc2c(c1)CCC(=O)N2
REMARK SMILES IDX 1 1 2 2 12 3 13 4 17 5 14 6 16 7 15 8 18 9 22 10 19 11 20 12
REMARK SMILES IDX 21 13 3 15 4 16 5 17 6 18 7 21 8 22 11 23 9 24 10 25
REMARK H PARENT 22 14 3 19 6 20
ROOT
ATOM      1  C   UNL     1      50.618  50.010  14.937  1.00  0.00    +0.036 C 
ATOM      2  C   UNL     1      49.873  50.037  16.277  1.00  0.00    +0.111 C 
ENDROOT
BRANCH   2   3
ATOM      3  C   UNL     1      48.473  49.447  16.203  1.00  0.00    -0.025 A 
ATOM      4  C   UNL     1      47.660  49.474  17.348  1.00  0.00    +0.008 A 
ATOM      5  C   UNL     1      47.936  48.931  15.011  1.00  0.00    +0.011 A 
ATOM      6  C   UNL     1      46.356  48.973  17.317  1.00  0.00    +0.027 A 
ATOM      7  C   UNL     1      46.634  48.413  14.977  1.00  0.00    -0.024 A 
ATOM      8  C   UNL     1      45.855  48.434  16.136  1.00  0.00    +0.044 A 
ATOM      9  C   UNL     1      46.019  47.938  13.690  1.00  0.00    +0.047 C 
ATOM     10  N   UNL     1      44.548  47.939  16.101  1.00  0.00    -0.326 N 
ATOM     11  C   UNL     1      44.975  46.863  13.942  1.00  0.00    +0.105 C 
ATOM     12  C   UNL     1      44.016  47.251  15.042  1.00  0.00    +0.224 C 
ATOM     13  O   UNL     1      42.840  46.893  15.048  1.00  0.00    -0.275 OA
ATOM     14  H   UNL     1      43.931  48.076  16.891  1.00  0.00    +0.169 HD
ENDBRANCH   2   3
BRANCH   2  15
ATOM     15  N   UNL     1      49.786  51.388  16.808  1.00  0.00    -0.331 N 
ATOM     16  C   UNL     1      50.541  51.782  17.896  1.00  0.00    +0.321 C 
ATOM     17  O   UNL     1      51.270  51.001  18.491  1.00  0.00    -0.248 OA
ATOM     18  N   UNL     1      50.326  53.105  18.181  1.00  0.00    -0.284 N 
ATOM     19  H   UNL     1      49.489  52.107  16.167  1.00  0.00    +0.166 HD
ATOM     20  H   UNL     1      49.529  53.564  17.774  1.00  0.00    +0.174 HD
BRANCH  18  21
ATOM     21  C   UNL     1      50.940  53.851  19.154  1.00  0.00    +0.190 A 
ATOM     22  N   UNL     1      51.882  54.713  18.847  1.00  0.00    -0.228 NA
ATOM     23  S   UNL     1      50.587  53.692  20.814  1.00  0.00    -0.105 S 
ATOM     24  C   UNL     1      52.348  55.315  20.000  1.00  0.00    +0.125 A 
ATOM     25  C   UNL     1      51.760  54.889  21.170  1.00  0.00    +0.088 A 
ENDBRANCH  18  21
ENDBRANCH   2  15
TORSDOF 3
ENDMDL
MODEL 4
REMARK VINA RESULT:    -7.470      4.653     10.091
REMARK INTER + INTRA:          -9.272
REMARK INTER:                  -8.813
REMARK INTRA:                  -0.460
REMARK UNBOUND:                -0.493
REMARK SMILES C[C@@H](NC(=O)Nc1nccs1)c1ccc2c(c1)CCC(=O)N2
REMARK SMILES IDX 1 1 2 2 12 3 13 4 17 5 14 6 16 7 15 8 18 9 22 10 19 11 20 12
REMARK SMILES IDX 21 13 3 15 4 16 5 17 6 18 7 21 8 22 11 23 9 24 10 25
REMARK H PARENT 22 14 3 19 6 20
ROOT
ATOM      1  C   UNL     1      45.988  47.811  19.109  1.00  0.00    +0.036 C 
ATOM      2  C   UNL     1      46.668  48.062  17.758  1.00  0.00    +0.111 C 
ENDROOT
BRANCH   2   3
ATOM      3  C   UNL     1      47.675  49.203  17.790  1.00  0.00    -0.025 A 
ATOM      4  C   UNL     1      47.345  50.421  17.174  1.00  0.00    +0.008 A 
ATOM      5  C   UNL     1      48.901  49.105  18.469  1.00  0.00    +0.011 A 
ATOM      6  C   UNL     1      48.225  51.506  17.207  1.00  0.00    +0.027 A 
ATOM      7  C   UNL     1      49.795  50.184  18.493  1.00  0.00    -0.024 A 
ATOM      8  C   UNL     1      49.450  51.377  17.855  1.00  0.00    +0.044 A 
ATOM      9  C   UNL     1      51.070  50.121  19.288  1.00  0.00    +0.047 C 
ATOM     10  N   UNL     1      50.329  52.464  17.895  1.00  0.00    -0.326 N 
ATOM     11  C   UNL     1      52.140  51.016  18.685  1.00  0.00    +0.105 C 
ATOM     12  C   UNL     1      51.613  52.395  18.367  1.00  0.00    +0.224 C 
ATOM     13  O   UNL     1      52.318  53.400  18.431  1.00  0.00    -0.275 OA
ATOM     14  H   UNL     1      50.031  53.371  17.558  1.00  0.00    +0.169 HD
ENDBRANCH   2   3
BRANCH   2  15
ATOM     15  N   UNL     1      45.692  48.326  16.713  1.00  0.00    -0.331 N 
ATOM     16  C   UNL     1      45.182  47.307  15.933  1.00  0.00    +0.321 C 
ATOM     17  O   UNL     1      45.567  46.152  16.049  1.00  0.00    -0.248 OA
ATOM     18  N   UNL     1      44.248  47.789  15.054  1.00  0.00    -0.284 N 
ATOM     19  H   UNL     1      45.124  49.152  16.823  1.00  0.00    +0.166 HD
ATOM     20  H   UNL     1      44.202  48.782  14.894  1.00  0.00    +0.174 HD
BRANCH  18  21
ATOM     21  C   UNL     1      43.496  47.064  14.167  1.00  0.00    +0.190 A 
ATOM     22  N   UNL     1      42.271  46.697  14.465  1.00  0.00    -0.228 NA
ATOM     23  S   UNL     1      44.085  46.538  12.656  1.00  0.00    -0.105 S 
ATOM     24  C   UNL     1      41.742  45.966  13.418  1.00  0.00    +0.125 A 
ATOM     25  C   UNL     1      42.582  45.778  12.343  1.00  0.00    +0.088 A 
ENDBRANCH  18  21
ENDBRANCH   2  15
TORSDOF 3
ENDMDL
MODEL 5
REMARK VINA RESULT:    -7.346      4.656     10.090
REMARK INTER + INTRA:          -9.127
REMARK INTER:                  -8.676
REMARK INTRA:                  -0.451
REMARK UNBOUND:                -0.493
REMARK SMILES C[C@@H](NC(=O)Nc1nccs1)c1ccc2c(c1)CCC(=O)N2
REMARK SMILES IDX 1 1 2 2 12 3 13 4 17 5 14 6 16 7 15 8 18 9 22 10 19 11 20 12
REMARK SMILES IDX 21 13 3 15 4 16 5 17 6 18 7 21 8 22 11 23 9 24 10 25
REMARK H PARENT 22 14 3 19 6 20
ROOT
ATOM      1  C   UNL     1      45.549  47.661  18.794  1.00  0.00    +0.036 C 
ATOM      2  C   UNL     1      46.431  47.974  17.579  1.00  0.00    +0.111 C 
ENDROOT
BRANCH   2   3
ATOM      3  C   UNL     1      47.504  49.014  17.862  1.00  0.00    -0.025 A 
ATOM      4  C   UNL     1      48.650  48.635  18.579  1.00  0.00    +0.008 A 
ATOM      5  C   UNL     1      47.422  50.330  17.375  1.00  0.00    +0.011 A 
ATOM      6  C   UNL     1      49.676  49.549  18.833  1.00  0.00    +0.027 A 
ATOM      7  C   UNL     1      48.441  51.257  17.639  1.00  0.00    -0.024 A 
ATOM      8  C   UNL     1      49.561  50.857  18.373  1.00  0.00    +0.044 A 
ATOM      9  C   UNL     1      48.406  52.640  17.052  1.00  0.00    +0.047 C 
ATOM     10  N   UNL     1      50.590  51.771  18.620  1.00  0.00    -0.326 N 
ATOM     11  C   UNL     1      49.151  53.631  17.931  1.00  0.00    +0.105 C 
ATOM     12  C   UNL     1      50.507  53.111  18.349  1.00  0.00    +0.224 C 
ATOM     13  O   UNL     1      51.468  53.854  18.534  1.00  0.00    -0.275 OA
ATOM     14  H   UNL     1      51.461  51.457  19.026  1.00  0.00    +0.169 HD
ENDBRANCH   2   3
BRANCH   2  15
ATOM     15  N   UNL     1      45.634  48.417  16.446  1.00  0.00    -0.331 N 
ATOM     16  C   UNL     1      45.132  47.517  15.526  1.00  0.00    +0.321 C 
ATOM     17  O   UNL     1      45.380  46.321  15.593  1.00  0.00    -0.248 OA
ATOM     18  N   UNL     1      44.376  48.160  14.581  1.00  0.00    -0.284 N 
ATOM     19  H   UNL     1      45.142  49.291  16.553  1.00  0.00    +0.166 HD
ATOM     20  H   UNL     1      44.453  49.160  14.500  1.00  0.00    +0.174 HD
BRANCH  18  21
ATOM     21  C   UNL     1      43.680  47.587  13.549  1.00  0.00    +0.190 A 
ATOM     22  N   UNL     1      42.381  47.407  13.631  1.00  0.00    -0.228 NA
ATOM     23  S   UNL     1      44.423  47.018  12.124  1.00  0.00    -0.105 S 
ATOM     24  C   UNL     1      41.927  46.797  12.478  1.00  0.00    +0.125 A 
ATOM     25  C   UNL     1      42.894  46.510  11.540  1.00  0.00    +0.088 A 
ENDBRANCH  18  21
ENDBRANCH   2  15
TORSDOF 3
ENDMDL
