MODEL 1
REMARK VINA RESULT:    -7.567      0.000      0.000
REMARK INTER + INTRA:         -10.450
REMARK INTER:                 -10.001
REMARK INTRA:                  -0.449
REMARK UNBOUND:                -0.449
REMARK SMILES NS(=O)(=O)CCCNc1cc[nH+]c2cc(Cl)ccc12
REMARK SMILES IDX 6 1 7 2 8 3 9 5 17 6 18 7 15 8 19 9 14 10 13 11 10 12 12 13
REMARK SMILES IDX 11 14 16 15 5 17 2 18 3 19 4 20 1 21
REMARK H PARENT 8 4 12 16 1 22 1 23
ROOT
ATOM      1  C   UNL     1      51.066  52.045  18.269  1.00  0.00    +0.039 C 
ENDROOT
BRANCH   1   2
ATOM      2  C   UNL     1      51.424  53.343  18.996  1.00  0.00    +0.114 C 
BRANCH   2   3
ATOM      3  N   UNL     1      50.674  53.428  20.252  1.00  0.00    -0.384 N 
ATOM      4  H   UNL     1      50.775  52.579  20.807  1.00  0.00    +0.160 HD
BRANCH   3   5
ATOM      5  C   UNL     1      50.720  54.588  21.040  1.00  0.00    +0.054 A 
ATOM      6  C   UNL     1      48.080  56.791  19.461  1.00  0.00    +0.022 A 
ATOM      7  C   UNL     1      48.909  55.689  19.695  1.00  0.00    +0.019 A 
ATOM      8  C   UNL     1      48.185  57.919  20.264  1.00  0.00    +0.047 A 
ATOM      9  C   UNL     1      49.859  55.686  20.744  1.00  0.00    +0.070 A 
ATOM     10  C   UNL     1      49.117  57.964  21.296  1.00  0.00    +0.100 A 
ATOM     11  C   UNL     1      49.952  56.862  21.530  1.00  0.00    +0.214 A 
ATOM     12  C   UNL     1      51.675  54.755  22.049  1.00  0.00    +0.097 A 
ATOM     13  N   UNL     1      50.868  56.924  22.514  1.00  0.00    -0.211 N 
ATOM     14  C   UNL     1      51.720  55.929  22.782  1.00  0.00    +0.309 A 
ATOM     15 Cl   UNL     1      47.169  59.274  19.979  1.00  0.00    -0.084 Cl
ATOM     16  H   UNL     1      50.929  57.774  23.073  1.00  0.00    +0.453 HD
ENDBRANCH   3   5
ENDBRANCH   2   3
ENDBRANCH   1   2
BRANCH   1  17
ATOM     17  C   UNL     1      52.095  50.934  18.470  1.00  0.00    +0.155 C 
BRANCH  17  18
ATOM     18  S   UNL     1      52.011  50.213  20.102  1.00  0.00    +0.209 S 
ATOM     19  O   UNL     1      52.778  51.033  21.011  1.00  0.00    -0.213 OA
ATOM     20  O   UNL     1      50.649  49.831  20.382  1.00  0.00    -0.213 OA
BRANCH  18  21
ATOM     21  N   UNL     1      52.870  48.797  19.908  1.00  0.00    -0.229 NA
ATOM     22  H   UNL     1      53.872  48.977  19.809  1.00  0.00    +0.137 HD
ATOM     23  H   UNL     1      52.653  48.128  20.651  1.00  0.00    +0.137 HD
ENDBRANCH  18  21
ENDBRANCH  17  18
ENDBRANCH   1  17
TORSDOF 6
ENDMDL
MODEL 2
REMARK VINA RESULT:    -7.439      1.889      1.895
REMARK INTER + INTRA:         -10.279
REMARK INTER:                  -9.536
REMARK INTRA:                  -0.743
REMARK UNBOUND:                -0.449
REMARK SMILES NS(=O)(=O)CCCNc1cc[nH+]c2cc(Cl)ccc12
REMARK SMILES IDX 6 1 7 2 8 3 9 5 17 6 18 7 15 8 19 9 14 10 13 11 10 12 12 13
REMARK SMILES IDX 11 14 16 15 5 17 2 18 3 19 4 20 1 21
REMARK H PARENT 8 4 12 16 1 22 1 23
ROOT
ATOM      1  C   UNL     1      50.961  50.847  20.273  1.00  0.00    +0.039 C 
ENDROOT
BRANCH   1   2
ATOM      2  C   UNL     1      51.002  51.987  21.293  1.00  0.00    +0.114 C 
BRANCH   2   3
ATOM      3  N   UNL     1      50.483  53.214  20.683  1.00  0.00    -0.384 N 
ATOM      4  H   UNL     1      49.546  53.078  20.304  1.00  0.00    +0.160 HD
BRANCH   3   5
ATOM      5  C   UNL     1      50.621  54.452  21.327  1.00  0.00    +0.054 A 
ATOM      6  C   UNL     1      48.018  56.595  19.612  1.00  0.00    +0.022 A 
ATOM      7  C   UNL     1      48.803  55.485  19.939  1.00  0.00    +0.019 A 
ATOM      8  C   UNL     1      48.214  57.801  20.272  1.00  0.00    +0.047 A 
ATOM      9  C   UNL     1      49.801  55.553  20.940  1.00  0.00    +0.070 A 
ATOM     10  C   UNL     1      49.195  57.915  21.252  1.00  0.00    +0.100 A 
ATOM     11  C   UNL     1      49.987  56.805  21.579  1.00  0.00    +0.214 A 
ATOM     12  C   UNL     1      51.630  54.684  22.269  1.00  0.00    +0.097 A 
ATOM     13  N   UNL     1      50.950  56.932  22.510  1.00  0.00    -0.211 N 
ATOM     14  C   UNL     1      51.765  55.931  22.856  1.00  0.00    +0.309 A 
ATOM     15 Cl   UNL     1      47.250  59.166  19.873  1.00  0.00    -0.084 Cl
ATOM     16  H   UNL     1      51.078  57.836  22.963  1.00  0.00    +0.453 HD
ENDBRANCH   3   5
ENDBRANCH   2   3
ENDBRANCH   1   2
BRANCH   1  17
ATOM     17  C   UNL     1      52.282  50.646  19.535  1.00  0.00    +0.155 C 
BRANCH  17  18
ATOM     18  S   UNL     1      52.379  51.612  18.035  1.00  0.00    +0.209 S 
ATOM     19  O   UNL     1      52.880  52.927  18.362  1.00  0.00    -0.213 OA
ATOM     20  O   UNL     1      52.966  50.808  16.991  1.00  0.00    -0.213 OA
BRANCH  18  21
ATOM     21  N   UNL     1      50.772  51.807  17.635  1.00  0.00    -0.229 NA
ATOM     22  H   UNL     1      50.655  52.009  16.639  1.00  0.00    +0.137 HD
ATOM     23  H   UNL     1      50.212  51.013  17.953  1.00  0.00    +0.137 HD
ENDBRANCH  18  21
ENDBRANCH  17  18
ENDBRANCH   1  17
TORSDOF 6
ENDMDL
MODEL 3
REMARK VINA RESULT:    -7.319      3.919      6.608
REMARK INTER + INTRA:         -10.121
REMARK INTER:                  -9.600
REMARK INTRA:                  -0.521
REMARK UNBOUND:                -0.449
REMARK SMILES NS(=O)(=O)CCCNc1cc[nH+]c2cc(Cl)ccc12
REMARK SMILES IDX 6 1 7 2 8 3 9 5 17 6 18 7 15 8 19 9 14 10 13 11 10 12 12 13
REMARK SMILES IDX 11 14 16 15 5 17 2 18 3 19 4 20 1 21
REMARK H PARENT 8 4 12 16 1 22 1 23
ROOT
ATOM      1  C   UNL     1      50.393  54.011  19.932  1.00  0.00    +0.039 C 
ENDROOT
BRANCH   1   2
ATOM      2  C   UNL     1      51.575  53.721  19.005  1.00  0.00    +0.114 C 
BRANCH   2   3
ATOM      3  N   UNL     1      51.216  52.653  18.068  1.00  0.00    -0.384 N 
ATOM      4  H   UNL     1      51.806  52.670  17.236  1.00  0.00    +0.160 HD
BRANCH   3   5
ATOM      5  C   UNL     1      50.973  51.348  18.522  1.00  0.00    +0.054 A 
ATOM      6  C   UNL     1      47.434  50.690  17.359  1.00  0.00    +0.022 A 
ATOM      7  C   UNL     1      48.649  51.348  17.575  1.00  0.00    +0.019 A 
ATOM      8  C   UNL     1      47.247  49.404  17.850  1.00  0.00    +0.047 A 
ATOM      9  C   UNL     1      49.709  50.734  18.284  1.00  0.00    +0.070 A 
ATOM     10  C   UNL     1      48.257  48.769  18.565  1.00  0.00    +0.100 A 
ATOM     11  C   UNL     1      49.474  49.429  18.788  1.00  0.00    +0.214 A 
ATOM     12  C   UNL     1      51.899  50.661  19.315  1.00  0.00    +0.097 A 
ATOM     13  N   UNL     1      50.437  48.817  19.502  1.00  0.00    -0.211 N 
ATOM     14  C   UNL     1      51.612  49.389  19.782  1.00  0.00    +0.309 A 
ATOM     15 Cl   UNL     1      45.756  48.593  17.585  1.00  0.00    -0.084 Cl
ATOM     16  H   UNL     1      50.259  47.880  19.862  1.00  0.00    +0.453 HD
ENDBRANCH   3   5
ENDBRANCH   2   3
ENDBRANCH   1   2
BRANCH   1  17
ATOM     17  C   UNL     1      50.413  55.421  20.518  1.00  0.00    +0.155 C 
BRANCH  17  18
ATOM     18  S   UNL     1      51.756  55.661  21.673  1.00  0.00    +0.209 S 
ATOM     19  O   UNL     1      51.903  54.463  22.468  1.00  0.00    -0.213 OA
ATOM     20  O   UNL     1      52.871  56.263  20.984  1.00  0.00    -0.213 OA
BRANCH  18  21
ATOM     21  N   UNL     1      51.141  56.829  22.692  1.00  0.00    -0.229 NA
ATOM     22  H   UNL     1      51.335  57.771  22.343  1.00  0.00    +0.137 HD
ATOM     23  H   UNL     1      50.150  56.668  22.885  1.00  0.00    +0.137 HD
ENDBRANCH  18  21
ENDBRANCH  17  18
ENDBRANCH   1  17
TORSDOF 6
ENDMDL
MODEL 4
REMARK VINA RESULT:    -6.874      4.633      6.781
REMARK INTER + INTRA:          -9.533
REMARK INTER:                  -9.509
REMARK INTRA:                  -0.023
REMARK UNBOUND:                -0.449
REMARK SMILES NS(=O)(=O)CCCNc1cc[nH+]c2cc(Cl)ccc12
REMARK SMILES IDX 6 1 7 2 8 3 9 5 17 6 18 7 15 8 19 9 14 10 13 11 10 12 12 13
REMARK SMILES IDX 11 14 16 15 5 17 2 18 3 19 4 20 1 21
REMARK H PARENT 8 4 12 16 1 22 1 23
ROOT
ATOM      1  C   UNL     1      52.341  55.871  20.617  1.00  0.00    +0.039 C 
ENDROOT
BRANCH   1   2
ATOM      2  C   UNL     1      50.953  55.368  20.213  1.00  0.00    +0.114 C 
BRANCH   2   3
ATOM      3  N   UNL     1      51.085  54.149  19.409  1.00  0.00    -0.384 N 
ATOM      4  H   UNL     1      51.741  54.277  18.639  1.00  0.00    +0.160 HD
BRANCH   3   5
ATOM      5  C   UNL     1      51.222  52.894  20.022  1.00  0.00    +0.054 A 
ATOM      6  C   UNL     1      49.212  50.623  17.760  1.00  0.00    +0.022 A 
ATOM      7  C   UNL     1      49.808  51.780  18.273  1.00  0.00    +0.019 A 
ATOM      8  C   UNL     1      49.368  49.412  18.422  1.00  0.00    +0.047 A 
ATOM      9  C   UNL     1      50.579  51.753  19.459  1.00  0.00    +0.070 A 
ATOM     10  C   UNL     1      50.106  49.344  19.600  1.00  0.00    +0.100 A 
ATOM     11  C   UNL     1      50.700  50.503  20.119  1.00  0.00    +0.214 A 
ATOM     12  C   UNL     1      51.879  52.742  21.248  1.00  0.00    +0.097 A 
ATOM     13  N   UNL     1      51.390  50.432  21.272  1.00  0.00    -0.211 N 
ATOM     14  C   UNL     1      51.961  51.496  21.847  1.00  0.00    +0.309 A 
ATOM     15 Cl   UNL     1      48.639  47.990  17.793  1.00  0.00    -0.084 Cl
ATOM     16  H   UNL     1      51.470  49.530  21.740  1.00  0.00    +0.453 HD
ENDBRANCH   3   5
ENDBRANCH   2   3
ENDBRANCH   1   2
BRANCH   1  17
ATOM     17  C   UNL     1      52.309  56.898  21.746  1.00  0.00    +0.155 C 
BRANCH  17  18
ATOM     18  S   UNL     1      53.746  57.960  21.744  1.00  0.00    +0.209 S 
ATOM     19  O   UNL     1      54.717  57.427  22.672  1.00  0.00    -0.213 OA
ATOM     20  O   UNL     1      54.091  58.288  20.382  1.00  0.00    -0.213 OA
BRANCH  18  21
ATOM     21  N   UNL     1      53.154  59.358  22.433  1.00  0.00    -0.229 NA
ATOM     22  H   UNL     1      52.487  59.154  23.181  1.00  0.00    +0.137 HD
ATOM     23  H   UNL     1      53.914  59.975  22.730  1.00  0.00    +0.137 HD
ENDBRANCH  18  21
ENDBRANCH  17  18
ENDBRANCH   1  17
TORSDOF 6
ENDMDL
MODEL 5
REMARK VINA RESULT:    -6.834      4.986      7.421
REMARK INTER + INTRA:          -9.480
REMARK INTER:                  -8.811
REMARK INTRA:                  -0.669
REMARK UNBOUND:                -0.449
REMARK SMILES NS(=O)(=O)CCCNc1cc[nH+]c2cc(Cl)ccc12
REMARK SMILES IDX 6 1 7 2 8 3 9 5 17 6 18 7 15 8 19 9 14 10 13 11 10 12 12 13
REMARK SMILES IDX 11 14 16 15 5 17 2 18 3 19 4 20 1 21
REMARK H PARENT 8 4 12 16 1 22 1 23
ROOT
ATOM      1  C   UNL     1      50.886  52.715  19.046  1.00  0.00    +0.039 C 
ENDROOT
BRANCH   1   2
ATOM      2  C   UNL     1      49.763  52.617  18.011  1.00  0.00    +0.114 C 
BRANCH   2   3
ATOM      3  N   UNL     1      49.171  51.278  18.051  1.00  0.00    -0.384 N 
ATOM      4  H   UNL     1      48.342  51.251  18.646  1.00  0.00    +0.160 HD
BRANCH   3   5
ATOM      5  C   UNL     1      49.006  50.529  16.876  1.00  0.00    +0.054 A 
ATOM      6  C   UNL     1      45.524  49.100  17.264  1.00  0.00    +0.022 A 
ATOM      7  C   UNL     1      46.694  49.813  17.543  1.00  0.00    +0.019 A 
ATOM      8  C   UNL     1      45.427  48.361  16.092  1.00  0.00    +0.047 A 
ATOM      9  C   UNL     1      47.795  49.810  16.653  1.00  0.00    +0.070 A 
ATOM     10  C   UNL     1      46.492  48.317  15.197  1.00  0.00    +0.100 A 
ATOM     11  C   UNL     1      47.668  49.028  15.477  1.00  0.00    +0.214 A 
ATOM     12  C   UNL     1      50.047  50.364  15.956  1.00  0.00    +0.097 A 
ATOM     13  N   UNL     1      48.701  48.960  14.618  1.00  0.00    -0.211 N 
ATOM     14  C   UNL     1      49.865  49.583  14.827  1.00  0.00    +0.309 A 
ATOM     15 Cl   UNL     1      43.991  47.484  15.746  1.00  0.00    -0.084 Cl
ATOM     16  H   UNL     1      48.602  48.394  13.776  1.00  0.00    +0.453 HD
ENDBRANCH   3   5
ENDBRANCH   2   3
ENDBRANCH   1   2
BRANCH   1  17
ATOM     17  C   UNL     1      51.904  51.581  18.946  1.00  0.00    +0.155 C 
BRANCH  17  18
ATOM     18  S   UNL     1      51.899  50.530  20.391  1.00  0.00    +0.209 S 
ATOM     19  O   UNL     1      52.256  51.325  21.544  1.00  0.00    -0.213 OA
ATOM     20  O   UNL     1      50.720  49.701  20.370  1.00  0.00    -0.213 OA
BRANCH  18  21
ATOM     21  N   UNL     1      53.194  49.521  20.099  1.00  0.00    -0.229 NA
ATOM     22  H   UNL     1      53.682  49.777  19.238  1.00  0.00    +0.137 HD
ATOM     23  H   UNL     1      53.813  49.468  20.911  1.00  0.00    +0.137 HD
ENDBRANCH  18  21
ENDBRANCH  17  18
ENDBRANCH   1  17
TORSDOF 6
ENDMDL
