MODEL 1
REMARK VINA RESULT:    -6.607      0.000      0.000
REMARK INTER + INTRA:          -9.175
REMARK INTER:                  -8.539
REMARK INTRA:                  -0.636
REMARK UNBOUND:                -0.636
REMARK SMILES NC(=O)NNC(=O)NCCC[NH+]1CCCC1
REMARK SMILES IDX 10 1 11 2 12 3 14 4 15 5 13 6 16 7 9 9 8 10 6 11 7 12 5 13
REMARK SMILES IDX 4 16 2 17 3 18 1 19
REMARK H PARENT 12 8 8 14 5 15 4 20 1 21 1 22
ROOT
ATOM      1  C   UNL     1      52.211  56.089  21.746  1.00  0.00    +0.083 C 
ENDROOT
BRANCH   1   2
ATOM      2  C   UNL     1      51.381  56.815  20.682  1.00  0.00    +0.264 C 
BRANCH   2   3
ATOM      3  N   UNL     1      49.913  56.531  20.760  1.00  0.00    -0.335 N 
ATOM      4  C   UNL     1      48.165  57.122  19.217  1.00  0.00    +0.067 C 
ATOM      5  C   UNL     1      47.734  57.497  20.619  1.00  0.00    +0.067 C 
ATOM      6  C   UNL     1      49.286  56.125  19.443  1.00  0.00    +0.262 C 
ATOM      7  C   UNL     1      49.056  57.629  21.345  1.00  0.00    +0.262 C 
ATOM      8  H   UNL     1      49.801  55.699  21.377  1.00  0.00    +0.348 HD
ENDBRANCH   2   3
ENDBRANCH   1   2
BRANCH   1   9
ATOM      9  C   UNL     1      51.410  55.292  22.779  1.00  0.00    +0.123 C 
BRANCH   9  10
ATOM     10  N   UNL     1      51.772  53.888  22.842  1.00  0.00    -0.337 N 
ATOM     11  C   UNL     1      51.282  52.978  21.943  1.00  0.00    +0.333 C 
ATOM     12  O   UNL     1      50.402  53.255  21.131  1.00  0.00    -0.247 OA
ATOM     13  N   UNL     1      51.841  51.728  22.108  1.00  0.00    -0.248 N 
ATOM     14  H   UNL     1      52.699  53.675  23.190  1.00  0.00    +0.165 HD
ATOM     15  H   UNL     1      52.052  51.476  23.069  1.00  0.00    +0.193 HD
BRANCH  13  16
ATOM     16  N   UNL     1      51.247  50.660  21.386  1.00  0.00    -0.248 N 
ATOM     17  C   UNL     1      52.028  50.025  20.448  1.00  0.00    +0.330 C 
ATOM     18  O   UNL     1      53.151  50.378  20.108  1.00  0.00    -0.247 OA
ATOM     19  N   UNL     1      51.421  48.934  19.914  1.00  0.00    -0.350 N 
ATOM     20  H   UNL     1      50.662  50.046  21.947  1.00  0.00    +0.193 HD
ATOM     21  H   UNL     1      51.909  48.547  19.112  1.00  0.00    +0.161 HD
ATOM     22  H   UNL     1      50.421  48.997  19.777  1.00  0.00    +0.161 HD
ENDBRANCH  13  16
ENDBRANCH   9  10
ENDBRANCH   1   9
TORSDOF 5
ENDMDL
MODEL 2
REMARK VINA RESULT:    -6.602      2.425      3.224
REMARK INTER + INTRA:          -9.168
REMARK INTER:                  -8.761
REMARK INTRA:                  -0.407
REMARK UNBOUND:                -0.636
REMARK SMILES NC(=O)NNC(=O)NCCC[NH+]1CCCC1
REMARK SMILES IDX 10 1 11 2 12 3 14 4 15 5 13 6 16 7 9 9 8 10 6 11 7 12 5 13
REMARK SMILES IDX 4 16 2 17 3 18 1 19
REMARK H PARENT 12 8 8 14 5 15 4 20 1 21 1 22
ROOT
ATOM      1  C   UNL     1      48.688  55.037  18.319  1.00  0.00    +0.083 C 
ENDROOT
BRANCH   1   2
ATOM      2  C   UNL     1      49.687  55.525  19.374  1.00  0.00    +0.264 C 
BRANCH   2   3
ATOM      3  N   UNL     1      49.047  56.163  20.567  1.00  0.00    -0.335 N 
ATOM      4  C   UNL     1      47.904  58.273  20.735  1.00  0.00    +0.067 C 
ATOM      5  C   UNL     1      48.905  58.162  21.864  1.00  0.00    +0.067 C 
ATOM      6  C   UNL     1      47.722  56.837  20.277  1.00  0.00    +0.262 C 
ATOM      7  C   UNL     1      49.898  57.153  21.326  1.00  0.00    +0.262 C 
ATOM      8  H   UNL     1      48.814  55.393  21.229  1.00  0.00    +0.348 HD
ENDBRANCH   2   3
ENDBRANCH   1   2
BRANCH   1   9
ATOM      9  C   UNL     1      48.869  53.588  17.858  1.00  0.00    +0.123 C 
BRANCH   9  10
ATOM     10  N   UNL     1      50.238  53.113  17.949  1.00  0.00    -0.337 N 
ATOM     11  C   UNL     1      50.529  51.782  18.090  1.00  0.00    +0.333 C 
ATOM     12  O   UNL     1      49.666  50.932  18.298  1.00  0.00    -0.247 OA
ATOM     13  N   UNL     1      51.885  51.536  18.040  1.00  0.00    -0.248 N 
ATOM     14  H   UNL     1      50.935  53.643  17.440  1.00  0.00    +0.165 HD
ATOM     15  H   UNL     1      52.468  52.262  18.445  1.00  0.00    +0.193 HD
BRANCH  13  16
ATOM     16  N   UNL     1      52.313  50.231  18.399  1.00  0.00    -0.248 N 
ATOM     17  C   UNL     1      52.733  50.043  19.696  1.00  0.00    +0.330 C 
ATOM     18  O   UNL     1      52.874  50.930  20.528  1.00  0.00    -0.247 OA
ATOM     19  N   UNL     1      52.985  48.739  19.979  1.00  0.00    -0.350 N 
ATOM     20  H   UNL     1      51.742  49.482  18.017  1.00  0.00    +0.193 HD
ATOM     21  H   UNL     1      53.446  48.597  20.872  1.00  0.00    +0.161 HD
ATOM     22  H   UNL     1      53.388  48.186  19.233  1.00  0.00    +0.161 HD
ENDBRANCH  13  16
ENDBRANCH   9  10
ENDBRANCH   1   9
TORSDOF 5
ENDMDL
MODEL 3
REMARK VINA RESULT:    -6.311      4.951      7.309
REMARK INTER + INTRA:          -8.792
REMARK INTER:                  -8.125
REMARK INTRA:                  -0.667
REMARK UNBOUND:                -0.636
REMARK SMILES NC(=O)NNC(=O)NCCC[NH+]1CCCC1
REMARK SMILES IDX 10 1 11 2 12 3 14 4 15 5 13 6 16 7 9 9 8 10 6 11 7 12 5 13
REMARK SMILES IDX 4 16 2 17 3 18 1 19
REMARK H PARENT 12 8 8 14 5 15 4 20 1 21 1 22
ROOT
ATOM      1  C   UNL     1      48.360  49.683  14.862  1.00  0.00    +0.083 C 
ENDROOT
BRANCH   1   2
ATOM      2  C   UNL     1      48.348  48.251  15.407  1.00  0.00    +0.264 C 
BRANCH   2   3
ATOM      3  N   UNL     1      47.178  47.948  16.290  1.00  0.00    -0.335 N 
ATOM      4  C   UNL     1      45.756  49.460  17.506  1.00  0.00    +0.067 C 
ATOM      5  C   UNL     1      46.199  48.347  18.430  1.00  0.00    +0.067 C 
ATOM      6  C   UNL     1      46.008  48.894  16.120  1.00  0.00    +0.262 C 
ATOM      7  C   UNL     1      47.470  47.856  17.769  1.00  0.00    +0.262 C 
ATOM      8  H   UNL     1      46.813  47.018  15.995  1.00  0.00    +0.348 HD
ENDBRANCH   2   3
ENDBRANCH   1   2
BRANCH   1   9
ATOM      9  C   UNL     1      49.296  50.657  15.581  1.00  0.00    +0.123 C 
BRANCH   9  10
ATOM     10  N   UNL     1      50.080  50.042  16.636  1.00  0.00    -0.337 N 
ATOM     11  C   UNL     1      50.034  50.499  17.927  1.00  0.00    +0.333 C 
ATOM     12  O   UNL     1      49.453  51.534  18.243  1.00  0.00    -0.247 OA
ATOM     13  N   UNL     1      50.761  49.704  18.788  1.00  0.00    -0.248 N 
ATOM     14  H   UNL     1      50.253  49.048  16.550  1.00  0.00    +0.165 HD
ATOM     15  H   UNL     1      51.602  49.297  18.391  1.00  0.00    +0.193 HD
BRANCH  13  16
ATOM     16  N   UNL     1      50.968  50.205  20.100  1.00  0.00    -0.248 N 
ATOM     17  C   UNL     1      52.270  50.324  20.529  1.00  0.00    +0.330 C 
ATOM     18  O   UNL     1      53.254  49.928  19.917  1.00  0.00    -0.247 OA
ATOM     19  N   UNL     1      52.369  50.941  21.735  1.00  0.00    -0.350 N 
ATOM     20  H   UNL     1      50.357  50.977  20.357  1.00  0.00    +0.193 HD
ATOM     21  H   UNL     1      53.298  50.896  22.141  1.00  0.00    +0.161 HD
ATOM     22  H   UNL     1      51.634  50.746  22.402  1.00  0.00    +0.161 HD
ENDBRANCH  13  16
ENDBRANCH   9  10
ENDBRANCH   1   9
TORSDOF 5
ENDMDL
MODEL 4
REMARK VINA RESULT:    -5.892      2.407      3.536
REMARK INTER + INTRA:          -8.250
REMARK INTER:                  -7.914
REMARK INTRA:                  -0.336
REMARK UNBOUND:                -0.636
REMARK SMILES NC(=O)NNC(=O)NCCC[NH+]1CCCC1
REMARK SMILES IDX 10 1 11 2 12 3 14 4 15 5 13 6 16 7 9 9 8 10 6 11 7 12 5 13
REMARK SMILES IDX 4 16 2 17 3 18 1 19
REMARK H PARENT 12 8 8 14 5 15 4 20 1 21 1 22
ROOT
ATOM      1  C   UNL     1      49.797  55.469  19.358  1.00  0.00    +0.083 C 
ENDROOT
BRANCH   1   2
ATOM      2  C   UNL     1      51.174  56.124  19.211  1.00  0.00    +0.264 C 
BRANCH   2   3
ATOM      3  N   UNL     1      51.881  56.348  20.511  1.00  0.00    -0.335 N 
ATOM      4  C   UNL     1      52.102  58.369  21.796  1.00  0.00    +0.067 C 
ATOM      5  C   UNL     1      53.463  57.723  21.655  1.00  0.00    +0.067 C 
ATOM      6  C   UNL     1      51.137  57.242  21.480  1.00  0.00    +0.262 C 
ATOM      7  C   UNL     1      53.296  56.870  20.414  1.00  0.00    +0.262 C 
ATOM      8  H   UNL     1      51.933  55.423  20.987  1.00  0.00    +0.348 HD
ENDBRANCH   2   3
ENDBRANCH   1   2
BRANCH   1   9
ATOM      9  C   UNL     1      49.560  54.226  18.495  1.00  0.00    +0.123 C 
BRANCH   9  10
ATOM     10  N   UNL     1      50.758  53.440  18.264  1.00  0.00    -0.337 N 
ATOM     11  C   UNL     1      50.778  52.085  18.466  1.00  0.00    +0.333 C 
ATOM     12  O   UNL     1      49.847  51.478  18.990  1.00  0.00    -0.247 OA
ATOM     13  N   UNL     1      51.974  51.517  18.078  1.00  0.00    -0.248 N 
ATOM     14  H   UNL     1      51.377  53.763  17.531  1.00  0.00    +0.165 HD
ATOM     15  H   UNL     1      52.793  52.097  18.229  1.00  0.00    +0.193 HD
BRANCH  13  16
ATOM     16  N   UNL     1      52.190  50.164  18.448  1.00  0.00    -0.248 N 
ATOM     17  C   UNL     1      52.713  49.931  19.700  1.00  0.00    +0.330 C 
ATOM     18  O   UNL     1      53.111  50.796  20.470  1.00  0.00    -0.247 OA
ATOM     19  N   UNL     1      52.750  48.611  20.014  1.00  0.00    -0.350 N 
ATOM     20  H   UNL     1      51.449  49.527  18.165  1.00  0.00    +0.193 HD
ATOM     21  H   UNL     1      53.275  48.407  20.858  1.00  0.00    +0.161 HD
ATOM     22  H   UNL     1      52.954  47.973  19.255  1.00  0.00    +0.161 HD
ENDBRANCH  13  16
ENDBRANCH   9  10
ENDBRANCH   1   9
TORSDOF 5
ENDMDL
MODEL 5
REMARK VINA RESULT:    -5.635      3.088      3.816
REMARK INTER + INTRA:          -7.919
REMARK INTER:                  -7.534
REMARK INTRA:                  -0.385
REMARK UNBOUND:                -0.636
REMARK SMILES NC(=O)NNC(=O)NCCC[NH+]1CCCC1
REMARK SMILES IDX 10 1 11 2 12 3 14 4 15 5 13 6 16 7 9 9 8 10 6 11 7 12 5 13
REMARK SMILES IDX 4 16 2 17 3 18 1 19
REMARK H PARENT 12 8 8 14 5 15 4 20 1 21 1 22
ROOT
ATOM      1  C   UNL     1      50.552  53.809  20.447  1.00  0.00    +0.083 C 
ENDROOT
BRANCH   1   2
ATOM      2  C   UNL     1      50.802  55.094  21.243  1.00  0.00    +0.264 C 
BRANCH   2   3
ATOM      3  N   UNL     1      50.132  56.303  20.669  1.00  0.00    -0.335 N 
ATOM      4  C   UNL     1      48.908  58.043  21.793  1.00  0.00    +0.067 C 
ATOM      5  C   UNL     1      48.101  57.558  20.608  1.00  0.00    +0.067 C 
ATOM      6  C   UNL     1      50.316  57.565  21.486  1.00  0.00    +0.262 C 
ATOM      7  C   UNL     1      48.655  56.167  20.380  1.00  0.00    +0.262 C 
ATOM      8  H   UNL     1      50.600  56.503  19.760  1.00  0.00    +0.348 HD
ENDBRANCH   2   3
ENDBRANCH   1   2
BRANCH   1   9
ATOM      9  C   UNL     1      51.524  53.545  19.293  1.00  0.00    +0.123 C 
BRANCH   9  10
ATOM     10  N   UNL     1      50.907  52.910  18.144  1.00  0.00    -0.337 N 
ATOM     11  C   UNL     1      50.780  51.548  18.057  1.00  0.00    +0.333 C 
ATOM     12  O   UNL     1      51.304  50.780  18.860  1.00  0.00    -0.247 OA
ATOM     13  N   UNL     1      50.064  51.161  16.944  1.00  0.00    -0.248 N 
ATOM     14  H   UNL     1      50.171  53.430  17.680  1.00  0.00    +0.165 HD
ATOM     15  H   UNL     1      50.198  51.743  16.123  1.00  0.00    +0.193 HD
BRANCH  13  16
ATOM     16  N   UNL     1      50.063  49.776  16.633  1.00  0.00    -0.248 N 
ATOM     17  C   UNL     1      48.910  49.073  16.898  1.00  0.00    +0.330 C 
ATOM     18  O   UNL     1      47.931  49.518  17.483  1.00  0.00    -0.247 OA
ATOM     19  N   UNL     1      48.959  47.796  16.438  1.00  0.00    -0.350 N 
ATOM     20  H   UNL     1      50.518  49.542  15.754  1.00  0.00    +0.193 HD
ATOM     21  H   UNL     1      48.191  47.217  16.761  1.00  0.00    +0.161 HD
ATOM     22  H   UNL     1      49.857  47.332  16.492  1.00  0.00    +0.161 HD
ENDBRANCH  13  16
ENDBRANCH   9  10
ENDBRANCH   1   9
TORSDOF 5
ENDMDL
