MODEL 1
REMARK VINA RESULT:    -7.315      0.000      0.000
REMARK INTER + INTRA:          -9.912
REMARK INTER:                  -9.453
REMARK INTRA:                  -0.459
REMARK UNBOUND:                -0.459
REMARK SMILES Cc1ccc(C(=O)NNC(=S)NCCc2cccs2)o1
REMARK SMILES IDX 9 1 10 2 11 3 12 4 8 7 6 8 7 9 5 11 2 12 3 13 20 14 4 15
REMARK SMILES IDX 1 16 13 17 14 18 15 19 16 20 19 21 17 22 18 23
REMARK H PARENT 9 5 12 6 8 10
ROOT
ATOM      1  N   UNL     1      49.733  53.200  18.594  1.00  0.00    -0.274 N 
ATOM      2  C   UNL     1      50.986  52.664  18.445  1.00  0.00    +0.185 C 
ATOM      3  S   UNL     1      52.414  53.450  18.825  1.00  0.00    -0.039 S 
ATOM      4  N   UNL     1      51.059  51.416  17.904  1.00  0.00    -0.361 N 
ATOM      5  H   UNL     1      48.925  52.582  18.650  1.00  0.00    +0.190 HD
ATOM      6  H   UNL     1      52.006  51.080  17.764  1.00  0.00    +0.162 HD
ENDROOT
BRANCH   1   7
ATOM      7  N   UNL     1      49.556  54.409  19.298  1.00  0.00    -0.261 N 
ATOM      8  C   UNL     1      48.895  55.445  18.649  1.00  0.00    +0.305 C 
ATOM      9  O   UNL     1      48.628  55.354  17.448  1.00  0.00    -0.264 OA
ATOM     10  H   UNL     1      49.607  54.352  20.310  1.00  0.00    +0.191 HD
BRANCH   8  11
ATOM     11  C   UNL     1      48.558  56.578  19.487  1.00  0.00    +0.193 A 
ATOM     12  C   UNL     1      47.707  58.581  19.859  1.00  0.00    +0.101 A 
ATOM     13  C   UNL     1      48.192  58.140  21.069  1.00  0.00    +0.046 A 
ATOM     14  O   UNL     1      47.926  57.643  18.899  1.00  0.00    -0.456 OA
ATOM     15  C   UNL     1      48.740  56.854  20.832  1.00  0.00    +0.056 A 
ATOM     16  C   UNL     1      47.030  59.816  19.421  1.00  0.00    +0.087 C 
ENDBRANCH   8  11
ENDBRANCH   1   7
BRANCH   4  17
ATOM     17  C   UNL     1      49.979  50.593  17.374  1.00  0.00    +0.121 C 
BRANCH  17  18
ATOM     18  C   UNL     1      49.423  49.618  18.416  1.00  0.00    +0.068 C 
BRANCH  18  19
ATOM     19  C   UNL     1      47.969  49.337  18.183  1.00  0.00    +0.006 A 
ATOM     20  C   UNL     1      47.163  48.422  18.831  1.00  0.00    +0.015 A 
ATOM     21  S   UNL     1      47.100  50.205  16.987  1.00  0.00    -0.149 S 
ATOM     22  C   UNL     1      45.828  48.433  18.337  1.00  0.00    +0.012 A 
ATOM     23  C   UNL     1      45.657  49.357  17.331  1.00  0.00    +0.065 A 
ENDBRANCH  18  19
ENDBRANCH  17  18
ENDBRANCH   4  17
TORSDOF 5
ENDMDL
MODEL 2
REMARK VINA RESULT:    -7.266      3.153      3.342
REMARK INTER + INTRA:          -9.849
REMARK INTER:                  -9.444
REMARK INTRA:                  -0.405
REMARK UNBOUND:                -0.459
REMARK SMILES Cc1ccc(C(=O)NNC(=S)NCCc2cccs2)o1
REMARK SMILES IDX 9 1 10 2 11 3 12 4 8 7 6 8 7 9 5 11 2 12 3 13 20 14 4 15
REMARK SMILES IDX 1 16 13 17 14 18 15 19 16 20 19 21 17 22 18 23
REMARK H PARENT 9 5 12 6 8 10
ROOT
ATOM      1  N   UNL     1      50.454  51.787  19.504  1.00  0.00    -0.274 N 
ATOM      2  C   UNL     1      51.124  50.600  19.358  1.00  0.00    +0.185 C 
ATOM      3  S   UNL     1      52.694  50.319  19.865  1.00  0.00    -0.039 S 
ATOM      4  N   UNL     1      50.464  49.600  18.710  1.00  0.00    -0.361 N 
ATOM      5  H   UNL     1      49.436  51.798  19.470  1.00  0.00    +0.190 HD
ATOM      6  H   UNL     1      51.015  48.757  18.579  1.00  0.00    +0.162 HD
ENDROOT
BRANCH   1   7
ATOM      7  N   UNL     1      50.993  52.815  20.305  1.00  0.00    -0.261 N 
ATOM      8  C   UNL     1      51.519  53.928  19.663  1.00  0.00    +0.305 C 
ATOM      9  O   UNL     1      51.656  53.930  18.436  1.00  0.00    -0.264 OA
ATOM     10  H   UNL     1      50.674  52.848  21.268  1.00  0.00    +0.191 HD
BRANCH   8  11
ATOM     11  C   UNL     1      51.863  55.034  20.533  1.00  0.00    +0.193 A 
ATOM     12  C   UNL     1      52.963  56.876  21.054  1.00  0.00    +0.101 A 
ATOM     13  C   UNL     1      52.145  56.602  22.127  1.00  0.00    +0.046 A 
ATOM     14  O   UNL     1      52.798  55.932  20.089  1.00  0.00    -0.456 OA
ATOM     15  C   UNL     1      51.439  55.419  21.795  1.00  0.00    +0.056 A 
ATOM     16  C   UNL     1      53.939  57.944  20.762  1.00  0.00    +0.087 C 
ENDBRANCH   8  11
ENDBRANCH   1   7
BRANCH   4  17
ATOM     17  C   UNL     1      49.158  49.643  18.065  1.00  0.00    +0.121 C 
BRANCH  17  18
ATOM     18  C   UNL     1      48.085  48.903  18.869  1.00  0.00    +0.068 C 
BRANCH  18  19
ATOM     19  C   UNL     1      46.860  48.648  18.042  1.00  0.00    +0.006 A 
ATOM     20  C   UNL     1      45.688  48.026  18.426  1.00  0.00    +0.015 A 
ATOM     21  S   UNL     1      46.799  49.151  16.405  1.00  0.00    -0.149 S 
ATOM     22  C   UNL     1      44.740  47.960  17.365  1.00  0.00    +0.012 A 
ATOM     23  C   UNL     1      45.218  48.536  16.209  1.00  0.00    +0.065 A 
ENDBRANCH  18  19
ENDBRANCH  17  18
ENDBRANCH   4  17
TORSDOF 5
ENDMDL
MODEL 3
REMARK VINA RESULT:    -7.242      1.751      2.119
REMARK INTER + INTRA:          -9.818
REMARK INTER:                  -9.390
REMARK INTRA:                  -0.428
REMARK UNBOUND:                -0.459
REMARK SMILES Cc1ccc(C(=O)NNC(=S)NCCc2cccs2)o1
REMARK SMILES IDX 9 1 10 2 11 3 12 4 8 7 6 8 7 9 5 11 2 12 3 13 20 14 4 15
REMARK SMILES IDX 1 16 13 17 14 18 15 19 16 20 19 21 17 22 18 23
REMARK H PARENT 9 5 12 6 8 10
ROOT
ATOM      1  N   UNL     1      50.370  52.316  17.632  1.00  0.00    -0.274 N 
ATOM      2  C   UNL     1      50.916  51.094  17.928  1.00  0.00    +0.185 C 
ATOM      3  S   UNL     1      52.044  50.817  19.132  1.00  0.00    -0.039 S 
ATOM      4  N   UNL     1      50.536  50.047  17.144  1.00  0.00    -0.361 N 
ATOM      5  H   UNL     1      49.486  52.363  17.126  1.00  0.00    +0.190 HD
ATOM      6  H   UNL     1      51.003  49.173  17.364  1.00  0.00    +0.162 HD
ENDROOT
BRANCH   1   7
ATOM      7  N   UNL     1      50.576  53.414  18.492  1.00  0.00    -0.261 N 
ATOM      8  C   UNL     1      49.461  54.133  18.902  1.00  0.00    +0.305 C 
ATOM      9  O   UNL     1      48.358  53.913  18.393  1.00  0.00    -0.264 OA
ATOM     10  H   UNL     1      51.443  53.415  19.020  1.00  0.00    +0.191 HD
BRANCH   8  11
ATOM     11  C   UNL     1      49.708  55.110  19.943  1.00  0.00    +0.193 A 
ATOM     12  C   UNL     1      49.247  56.937  21.094  1.00  0.00    +0.101 A 
ATOM     13  C   UNL     1      50.398  56.418  21.643  1.00  0.00    +0.046 A 
ATOM     14  O   UNL     1      48.826  56.153  20.066  1.00  0.00    -0.456 OA
ATOM     15  C   UNL     1      50.696  55.246  20.905  1.00  0.00    +0.056 A 
ATOM     16  C   UNL     1      48.422  58.123  21.389  1.00  0.00    +0.087 C 
ENDBRANCH   8  11
ENDBRANCH   1   7
BRANCH   4  17
ATOM     17  C   UNL     1      49.682  50.060  15.962  1.00  0.00    +0.121 C 
BRANCH  17  18
ATOM     18  C   UNL     1      48.963  48.725  15.747  1.00  0.00    +0.068 C 
BRANCH  18  19
ATOM     19  C   UNL     1      47.544  48.784  16.229  1.00  0.00    +0.006 A 
ATOM     20  C   UNL     1      47.052  49.416  17.354  1.00  0.00    +0.015 A 
ATOM     21  S   UNL     1      46.298  48.004  15.349  1.00  0.00    -0.149 S 
ATOM     22  C   UNL     1      45.645  49.252  17.493  1.00  0.00    +0.012 A 
ATOM     23  C   UNL     1      45.109  48.504  16.470  1.00  0.00    +0.065 A 
ENDBRANCH  18  19
ENDBRANCH  17  18
ENDBRANCH   4  17
TORSDOF 5
ENDMDL
MODEL 4
REMARK VINA RESULT:    -6.946      1.999      2.300
REMARK INTER + INTRA:          -9.435
REMARK INTER:                  -9.129
REMARK INTRA:                  -0.306
REMARK UNBOUND:                -0.459
REMARK SMILES Cc1ccc(C(=O)NNC(=S)NCCc2cccs2)o1
REMARK SMILES IDX 9 1 10 2 11 3 12 4 8 7 6 8 7 9 5 11 2 12 3 13 20 14 4 15
REMARK SMILES IDX 1 16 13 17 14 18 15 19 16 20 19 21 17 22 18 23
REMARK H PARENT 9 5 12 6 8 10
ROOT
ATOM      1  N   UNL     1      49.579  52.670  18.495  1.00  0.00    -0.274 N 
ATOM      2  C   UNL     1      49.026  52.382  17.274  1.00  0.00    +0.185 C 
ATOM      3  S   UNL     1      47.844  53.296  16.520  1.00  0.00    -0.039 S 
ATOM      4  N   UNL     1      49.448  51.239  16.664  1.00  0.00    -0.361 N 
ATOM      5  H   UNL     1      50.485  52.275  18.743  1.00  0.00    +0.190 HD
ATOM      6  H   UNL     1      48.976  51.038  15.789  1.00  0.00    +0.162 HD
ENDROOT
BRANCH   1   7
ATOM      7  N   UNL     1      49.327  53.911  19.115  1.00  0.00    -0.261 N 
ATOM      8  C   UNL     1      49.948  54.165  20.331  1.00  0.00    +0.305 C 
ATOM      9  O   UNL     1      50.558  53.266  20.916  1.00  0.00    -0.264 OA
ATOM     10  H   UNL     1      49.000  54.658  18.510  1.00  0.00    +0.191 HD
BRANCH   8  11
ATOM     11  C   UNL     1      49.822  55.526  20.813  1.00  0.00    +0.193 A 
ATOM     12  C   UNL     1      48.794  57.469  21.009  1.00  0.00    +0.101 A 
ATOM     13  C   UNL     1      49.961  57.579  21.730  1.00  0.00    +0.046 A 
ATOM     14  O   UNL     1      48.704  56.232  20.452  1.00  0.00    -0.456 OA
ATOM     15  C   UNL     1      50.624  56.333  21.604  1.00  0.00    +0.056 A 
ATOM     16  C   UNL     1      47.674  58.391  20.736  1.00  0.00    +0.087 C 
ENDBRANCH   8  11
ENDBRANCH   1   7
BRANCH   4  17
ATOM     17  C   UNL     1      50.356  50.220  17.176  1.00  0.00    +0.121 C 
BRANCH  17  18
ATOM     18  C   UNL     1      49.778  49.477  18.384  1.00  0.00    +0.068 C 
BRANCH  18  19
ATOM     19  C   UNL     1      48.523  48.738  18.023  1.00  0.00    +0.006 A 
ATOM     20  C   UNL     1      47.244  48.947  18.501  1.00  0.00    +0.015 A 
ATOM     21  S   UNL     1      48.568  47.457  16.886  1.00  0.00    -0.149 S 
ATOM     22  C   UNL     1      46.301  48.046  17.931  1.00  0.00    +0.012 A 
ATOM     23  C   UNL     1      46.889  47.181  17.036  1.00  0.00    +0.065 A 
ENDBRANCH  18  19
ENDBRANCH  17  18
ENDBRANCH   4  17
TORSDOF 5
ENDMDL
MODEL 5
REMARK VINA RESULT:    -6.339      3.021      4.825
REMARK INTER + INTRA:          -8.651
REMARK INTER:                  -8.297
REMARK INTRA:                  -0.354
REMARK UNBOUND:                -0.459
REMARK SMILES Cc1ccc(C(=O)NNC(=S)NCCc2cccs2)o1
REMARK SMILES IDX 9 1 10 2 11 3 12 4 8 7 6 8 7 9 5 11 2 12 3 13 20 14 4 15
REMARK SMILES IDX 1 16 13 17 14 18 15 19 16 20 19 21 17 22 18 23
REMARK H PARENT 9 5 12 6 8 10
ROOT
ATOM      1  N   UNL     1      47.875  57.644  19.812  1.00  0.00    -0.274 N 
ATOM      2  C   UNL     1      48.814  57.070  20.629  1.00  0.00    +0.185 C 
ATOM      3  S   UNL     1      49.741  57.897  21.750  1.00  0.00    -0.039 S 
ATOM      4  N   UNL     1      49.029  55.734  20.471  1.00  0.00    -0.361 N 
ATOM      5  H   UNL     1      47.146  57.064  19.398  1.00  0.00    +0.190 HD
ATOM      6  H   UNL     1      49.768  55.361  21.059  1.00  0.00    +0.162 HD
ENDROOT
BRANCH   1   7
ATOM      7  N   UNL     1      47.470  58.978  20.021  1.00  0.00    -0.261 N 
ATOM      8  C   UNL     1      46.954  59.676  18.937  1.00  0.00    +0.305 C 
ATOM      9  O   UNL     1      47.010  59.191  17.804  1.00  0.00    -0.264 OA
ATOM     10  H   UNL     1      47.262  59.240  20.980  1.00  0.00    +0.191 HD
BRANCH   8  11
ATOM     11  C   UNL     1      46.364  60.960  19.257  1.00  0.00    +0.193 A 
ATOM     12  C   UNL     1      44.667  62.340  19.554  1.00  0.00    +0.101 A 
ATOM     13  C   UNL     1      45.805  63.074  19.803  1.00  0.00    +0.046 A 
ATOM     14  O   UNL     1      44.998  61.063  19.223  1.00  0.00    -0.456 OA
ATOM     15  C   UNL     1      46.896  62.190  19.612  1.00  0.00    +0.056 A 
ATOM     16  C   UNL     1      43.226  62.656  19.574  1.00  0.00    +0.087 C 
ENDBRANCH   8  11
ENDBRANCH   1   7
BRANCH   4  17
ATOM     17  C   UNL     1      48.452  54.832  19.481  1.00  0.00    +0.121 C 
BRANCH  17  18
ATOM     18  C   UNL     1      49.407  54.557  18.316  1.00  0.00    +0.068 C 
BRANCH  18  19
ATOM     19  C   UNL     1      49.106  53.242  17.660  1.00  0.00    +0.006 A 
ATOM     20  C   UNL     1      49.715  52.022  17.880  1.00  0.00    +0.015 A 
ATOM     21  S   UNL     1      47.872  53.126  16.478  1.00  0.00    -0.149 S 
ATOM     22  C   UNL     1      49.165  50.990  17.067  1.00  0.00    +0.012 A 
ATOM     23  C   UNL     1      48.154  51.456  16.257  1.00  0.00    +0.065 A 
ENDBRANCH  18  19
ENDBRANCH  17  18
ENDBRANCH   4  17
TORSDOF 5
ENDMDL
