MODEL 1
REMARK VINA RESULT:    -6.148      0.000      0.000
REMARK INTER + INTRA:          -8.167
REMARK INTER:                  -7.765
REMARK INTRA:                  -0.402
REMARK UNBOUND:                -0.402
REMARK SMILES CC(C)(C)[NH+]1CCN(C[C@](C)([NH3+])C(=O)[O-])CC1
REMARK SMILES IDX 9 1 10 2 11 3 13 4 14 5 15 6 12 7 8 11 7 12 16 13 6 14 17 15
REMARK SMILES IDX 5 16 2 18 1 19 3 20 4 21
REMARK H PARENT 12 8 12 9 12 10 5 17
ROOT
ATOM      1  C   UNL     1      52.083  52.111  19.865  1.00  0.00    +0.159 C 
ENDROOT
BRANCH   1   2
ATOM      2  C   UNL     1      51.531  53.374  20.614  1.00  0.00    +0.144 C 
ATOM      3  C   UNL     1      51.615  53.276  22.131  1.00  0.00    +0.087 C 
BRANCH   2   4
ATOM      4  C   UNL     1      52.250  54.646  20.035  1.00  0.00    +0.103 C 
ATOM      5  O   UNL     1      52.335  54.531  18.766  1.00  0.00    -0.544 OA
ATOM      6  O   UNL     1      52.586  55.558  20.825  1.00  0.00    -0.544 OA
ENDBRANCH   2   4
BRANCH   2   7
ATOM      7  N   UNL     1      50.034  53.520  20.266  1.00  0.00    -0.347 N 
ATOM      8  H   UNL     1      49.710  52.527  20.403  1.00  0.00    +0.345 HD
ATOM      9  H   UNL     1      49.891  53.664  19.261  1.00  0.00    +0.345 HD
ATOM     10  H   UNL     1      49.475  54.149  20.840  1.00  0.00    +0.345 HD
ENDBRANCH   2   7
ENDBRANCH   1   2
BRANCH   1  11
ATOM     11  N   UNL     1      51.109  51.227  19.224  1.00  0.00    -0.286 NA
ATOM     12  C   UNL     1      51.142  51.160  17.762  1.00  0.00    +0.146 C 
ATOM     13  C   UNL     1      50.937  49.906  19.822  1.00  0.00    +0.146 C 
ATOM     14  C   UNL     1      49.815  50.587  17.222  1.00  0.00    +0.278 C 
ATOM     15  C   UNL     1      49.627  49.242  19.325  1.00  0.00    +0.278 C 
ATOM     16  N   UNL     1      49.583  49.173  17.791  1.00  0.00    -0.329 N 
ATOM     17  H   UNL     1      50.408  48.630  17.514  1.00  0.00    +0.348 HD
BRANCH  16  18
ATOM     18  C   UNL     1      48.360  48.432  17.200  1.00  0.00    +0.089 C 
ATOM     19  C   UNL     1      48.704  46.981  16.845  1.00  0.00    +0.078 C 
ATOM     20  C   UNL     1      47.885  49.186  15.944  1.00  0.00    +0.078 C 
ATOM     21  C   UNL     1      47.215  48.470  18.228  1.00  0.00    +0.078 C 
ENDBRANCH  16  18
ENDBRANCH   1  11
TORSDOF 5
ENDMDL
MODEL 2
REMARK VINA RESULT:    -5.971      2.595      4.294
REMARK INTER + INTRA:          -7.944
REMARK INTER:                  -7.761
REMARK INTRA:                  -0.183
REMARK UNBOUND:                -0.402
REMARK SMILES CC(C)(C)[NH+]1CCN(C[C@](C)([NH3+])C(=O)[O-])CC1
REMARK SMILES IDX 9 1 10 2 11 3 13 4 14 5 15 6 12 7 8 11 7 12 16 13 6 14 17 15
REMARK SMILES IDX 5 16 2 18 1 19 3 20 4 21
REMARK H PARENT 12 8 12 9 12 10 5 17
ROOT
ATOM      1  C   UNL     1      51.316  55.723  21.991  1.00  0.00    +0.159 C 
ENDROOT
BRANCH   1   2
ATOM      2  C   UNL     1      51.673  56.917  21.039  1.00  0.00    +0.144 C 
ATOM      3  C   UNL     1      50.461  57.699  20.551  1.00  0.00    +0.087 C 
BRANCH   2   4
ATOM      4  C   UNL     1      52.744  57.818  21.755  1.00  0.00    +0.103 C 
ATOM      5  O   UNL     1      53.675  57.071  22.208  1.00  0.00    -0.544 OA
ATOM      6  O   UNL     1      52.581  59.060  21.755  1.00  0.00    -0.544 OA
ENDBRANCH   2   4
BRANCH   2   7
ATOM      7  N   UNL     1      52.357  56.339  19.782  1.00  0.00    -0.347 N 
ATOM      8  H   UNL     1      53.256  55.986  20.202  1.00  0.00    +0.345 HD
ATOM      9  H   UNL     1      52.682  57.080  19.152  1.00  0.00    +0.345 HD
ATOM     10  H   UNL     1      51.884  55.582  19.291  1.00  0.00    +0.345 HD
ENDBRANCH   2   7
ENDBRANCH   1   2
BRANCH   1  11
ATOM     11  N   UNL     1      51.284  54.381  21.408  1.00  0.00    -0.286 NA
ATOM     12  C   UNL     1      51.627  53.268  22.295  1.00  0.00    +0.146 C 
ATOM     13  C   UNL     1      50.134  54.065  20.564  1.00  0.00    +0.146 C 
ATOM     14  C   UNL     1      52.000  52.020  21.470  1.00  0.00    +0.278 C 
ATOM     15  C   UNL     1      50.413  52.808  19.701  1.00  0.00    +0.278 C 
ATOM     16  N   UNL     1      50.814  51.609  20.574  1.00  0.00    -0.329 N 
ATOM     17  H   UNL     1      50.028  51.458  21.215  1.00  0.00    +0.348 HD
BRANCH  16  18
ATOM     18  C   UNL     1      51.012  50.277  19.811  1.00  0.00    +0.089 C 
ATOM     19  C   UNL     1      50.502  49.085  20.629  1.00  0.00    +0.078 C 
ATOM     20  C   UNL     1      52.511  50.104  19.500  1.00  0.00    +0.078 C 
ATOM     21  C   UNL     1      50.263  50.360  18.469  1.00  0.00    +0.078 C 
ENDBRANCH  16  18
ENDBRANCH   1  11
TORSDOF 5
ENDMDL
MODEL 3
REMARK VINA RESULT:    -5.754      4.308      7.237
REMARK INTER + INTRA:          -7.670
REMARK INTER:                  -7.280
REMARK INTRA:                  -0.390
REMARK UNBOUND:                -0.402
REMARK SMILES CC(C)(C)[NH+]1CCN(C[C@](C)([NH3+])C(=O)[O-])CC1
REMARK SMILES IDX 9 1 10 2 11 3 13 4 14 5 15 6 12 7 8 11 7 12 16 13 6 14 17 15
REMARK SMILES IDX 5 16 2 18 1 19 3 20 4 21
REMARK H PARENT 12 8 12 9 12 10 5 17
ROOT
ATOM      1  C   UNL     1      46.957  47.578  16.553  1.00  0.00    +0.159 C 
ENDROOT
BRANCH   1   2
ATOM      2  C   UNL     1      45.430  47.848  16.795  1.00  0.00    +0.144 C 
ATOM      3  C   UNL     1      45.148  49.118  17.585  1.00  0.00    +0.087 C 
BRANCH   2   4
ATOM      4  C   UNL     1      44.694  47.805  15.407  1.00  0.00    +0.103 C 
ATOM      5  O   UNL     1      45.519  48.142  14.491  1.00  0.00    -0.544 OA
ATOM      6  O   UNL     1      43.498  47.437  15.372  1.00  0.00    -0.544 OA
ENDBRANCH   2   4
BRANCH   2   7
ATOM      7  N   UNL     1      44.863  46.678  17.627  1.00  0.00    -0.347 N 
ATOM      8  H   UNL     1      44.462  46.078  16.860  1.00  0.00    +0.345 HD
ATOM      9  H   UNL     1      44.029  46.956  18.152  1.00  0.00    +0.345 HD
ATOM     10  H   UNL     1      45.518  46.133  18.185  1.00  0.00    +0.345 HD
ENDBRANCH   2   7
ENDBRANCH   1   2
BRANCH   1  11
ATOM     11  N   UNL     1      47.908  48.551  17.090  1.00  0.00    -0.286 NA
ATOM     12  C   UNL     1      48.868  48.057  18.079  1.00  0.00    +0.146 C 
ATOM     13  C   UNL     1      48.538  49.447  16.125  1.00  0.00    +0.146 C 
ATOM     14  C   UNL     1      49.469  49.233  18.877  1.00  0.00    +0.278 C 
ATOM     15  C   UNL     1      49.184  50.661  16.840  1.00  0.00    +0.278 C 
ATOM     16  N   UNL     1      50.181  50.209  17.918  1.00  0.00    -0.329 N 
ATOM     17  H   UNL     1      50.883  49.644  17.428  1.00  0.00    +0.348 HD
BRANCH  16  18
ATOM     18  C   UNL     1      50.957  51.350  18.618  1.00  0.00    +0.089 C 
ATOM     19  C   UNL     1      52.401  51.436  18.110  1.00  0.00    +0.078 C 
ATOM     20  C   UNL     1      50.944  51.097  20.137  1.00  0.00    +0.078 C 
ATOM     21  C   UNL     1      50.223  52.678  18.359  1.00  0.00    +0.078 C 
ENDBRANCH  16  18
ENDBRANCH   1  11
TORSDOF 5
ENDMDL
MODEL 4
REMARK VINA RESULT:    -5.752      1.469      2.149
REMARK INTER + INTRA:          -7.667
REMARK INTER:                  -7.320
REMARK INTRA:                  -0.347
REMARK UNBOUND:                -0.402
REMARK SMILES CC(C)(C)[NH+]1CCN(C[C@](C)([NH3+])C(=O)[O-])CC1
REMARK SMILES IDX 9 1 10 2 11 3 13 4 14 5 15 6 12 7 8 11 7 12 16 13 6 14 17 15
REMARK SMILES IDX 5 16 2 18 1 19 3 20 4 21
REMARK H PARENT 12 8 12 9 12 10 5 17
ROOT
ATOM      1  C   UNL     1      51.351  51.073  18.649  1.00  0.00    +0.159 C 
ENDROOT
BRANCH   1   2
ATOM      2  C   UNL     1      51.230  52.486  19.320  1.00  0.00    +0.144 C 
ATOM      3  C   UNL     1      51.227  52.447  20.842  1.00  0.00    +0.087 C 
BRANCH   2   4
ATOM      4  C   UNL     1      52.353  53.412  18.727  1.00  0.00    +0.103 C 
ATOM      5  O   UNL     1      53.142  52.702  18.017  1.00  0.00    -0.544 OA
ATOM      6  O   UNL     1      52.312  54.640  18.974  1.00  0.00    -0.544 OA
ENDBRANCH   2   4
BRANCH   2   7
ATOM      7  N   UNL     1      49.882  53.105  18.894  1.00  0.00    -0.347 N 
ATOM      8  H   UNL     1      49.314  52.231  18.737  1.00  0.00    +0.345 HD
ATOM      9  H   UNL     1      49.931  53.510  17.954  1.00  0.00    +0.345 HD
ATOM     10  H   UNL     1      49.407  53.710  19.561  1.00  0.00    +0.345 HD
ENDBRANCH   2   7
ENDBRANCH   1   2
BRANCH   1  11
ATOM     11  N   UNL     1      50.119  50.446  18.170  1.00  0.00    -0.286 NA
ATOM     12  C   UNL     1      50.006  50.233  16.726  1.00  0.00    +0.146 C 
ATOM     13  C   UNL     1      49.639  49.293  18.926  1.00  0.00    +0.146 C 
ATOM     14  C   UNL     1      48.532  50.013  16.330  1.00  0.00    +0.278 C 
ATOM     15  C   UNL     1      48.158  48.986  18.583  1.00  0.00    +0.278 C 
ATOM     16  N   UNL     1      47.966  48.785  17.071  1.00  0.00    -0.329 N 
ATOM     17  H   UNL     1      48.581  48.005  16.814  1.00  0.00    +0.348 HD
BRANCH  16  18
ATOM     18  C   UNL     1      46.539  48.370  16.639  1.00  0.00    +0.089 C 
ATOM     19  C   UNL     1      45.475  49.233  17.327  1.00  0.00    +0.078 C 
ATOM     20  C   UNL     1      46.328  46.886  16.992  1.00  0.00    +0.078 C 
ATOM     21  C   UNL     1      46.427  48.507  15.110  1.00  0.00    +0.078 C 
ENDBRANCH  16  18
ENDBRANCH   1  11
TORSDOF 5
ENDMDL
MODEL 5
REMARK VINA RESULT:    -4.920      1.721      2.271
REMARK INTER + INTRA:          -6.616
REMARK INTER:                  -7.287
REMARK INTRA:                   0.672
REMARK UNBOUND:                -0.402
REMARK SMILES CC(C)(C)[NH+]1CCN(C[C@](C)([NH3+])C(=O)[O-])CC1
REMARK SMILES IDX 9 1 10 2 11 3 13 4 14 5 15 6 12 7 8 11 7 12 16 13 6 14 17 15
REMARK SMILES IDX 5 16 2 18 1 19 3 20 4 21
REMARK H PARENT 12 8 12 9 12 10 5 17
ROOT
ATOM      1  C   UNL     1      51.579  53.086  18.749  1.00  0.00    +0.159 C 
ENDROOT
BRANCH   1   2
ATOM      2  C   UNL     1      51.137  54.158  19.805  1.00  0.00    +0.144 C 
ATOM      3  C   UNL     1      49.628  54.295  19.948  1.00  0.00    +0.087 C 
BRANCH   2   4
ATOM      4  C   UNL     1      51.861  53.842  21.164  1.00  0.00    +0.103 C 
ATOM      5  O   UNL     1      52.096  54.940  21.772  1.00  0.00    -0.544 OA
ATOM      6  O   UNL     1      52.062  52.645  21.473  1.00  0.00    -0.544 OA
ENDBRANCH   2   4
BRANCH   2   7
ATOM      7  N   UNL     1      51.661  55.533  19.340  1.00  0.00    -0.347 N 
ATOM      8  H   UNL     1      52.416  55.699  20.055  1.00  0.00    +0.345 HD
ATOM      9  H   UNL     1      50.992  56.282  19.545  1.00  0.00    +0.345 HD
ATOM     10  H   UNL     1      52.052  55.598  18.402  1.00  0.00    +0.345 HD
ENDBRANCH   2   7
ENDBRANCH   1   2
BRANCH   1  11
ATOM     11  N   UNL     1      50.569  52.132  18.292  1.00  0.00    -0.286 NA
ATOM     12  C   UNL     1      50.240  51.032  19.202  1.00  0.00    +0.146 C 
ATOM     13  C   UNL     1      49.373  52.697  17.673  1.00  0.00    +0.146 C 
ATOM     14  C   UNL     1      49.545  49.890  18.434  1.00  0.00    +0.278 C 
ATOM     15  C   UNL     1      48.596  51.612  16.883  1.00  0.00    +0.278 C 
ATOM     16  N   UNL     1      48.251  50.411  17.777  1.00  0.00    -0.329 N 
ATOM     17  H   UNL     1      47.689  50.790  18.546  1.00  0.00    +0.348 HD
BRANCH  16  18
ATOM     18  C   UNL     1      47.383  49.319  17.105  1.00  0.00    +0.089 C 
ATOM     19  C   UNL     1      47.732  47.924  17.637  1.00  0.00    +0.078 C 
ATOM     20  C   UNL     1      47.609  49.376  15.582  1.00  0.00    +0.078 C 
ATOM     21  C   UNL     1      45.900  49.633  17.370  1.00  0.00    +0.078 C 
ENDBRANCH  16  18
ENDBRANCH   1  11
TORSDOF 5
ENDMDL
