MODEL 1
REMARK VINA RESULT:    -7.133      0.000      0.000
REMARK INTER + INTRA:         -11.730
REMARK INTER:                 -10.677
REMARK INTRA:                  -1.053
REMARK UNBOUND:                -1.053
REMARK SMILES CCC[NH+](CC1CC1)C[C@]([NH3+])(C(=O)[O-])c1ccccc1
REMARK SMILES IDX 4 1 3 3 2 4 1 5 5 6 6 7 7 8 8 9 9 10 10 11 15 12 16 13 20 14
REMARK SMILES IDX 17 15 19 16 18 17 12 18 13 19 14 20 11 21
REMARK H PARENT 4 2 11 22 11 23 11 24
ROOT
ATOM      1  N   UNL     1      50.720  52.600  19.532  1.00  0.00    -0.329 N 
ATOM      2  H   UNL     1      51.627  53.086  19.276  1.00  0.00    +0.348 HD
ENDROOT
BRANCH   1   3
ATOM      3  C   UNL     1      51.198  51.302  20.132  1.00  0.00    +0.262 C 
BRANCH   3   4
ATOM      4  C   UNL     1      50.501  50.089  19.527  1.00  0.00    +0.058 C 
ATOM      5  C   UNL     1      50.504  48.922  20.505  1.00  0.00    +0.010 C 
ENDBRANCH   3   4
ENDBRANCH   1   3
BRANCH   1   6
ATOM      6  C   UNL     1      50.043  52.418  18.194  1.00  0.00    +0.265 C 
BRANCH   6   7
ATOM      7  C   UNL     1      48.667  53.001  18.102  1.00  0.00    +0.044 C 
ATOM      8  C   UNL     1      48.260  53.756  16.861  1.00  0.00    +0.010 C 
ATOM      9  C   UNL     1      47.621  52.432  17.172  1.00  0.00    +0.010 C 
ENDBRANCH   6   7
ENDBRANCH   1   6
BRANCH   1  10
ATOM     10  C   UNL     1      50.034  53.617  20.457  1.00  0.00    +0.343 C 
BRANCH  10  11
ATOM     11  C   UNL     1      50.626  55.077  20.491  1.00  0.00    +0.209 C 
BRANCH  11  12
ATOM     12  C   UNL     1      49.610  56.178  20.720  1.00  0.00    +0.024 A 
ATOM     13  C   UNL     1      48.428  56.217  19.951  1.00  0.00    +0.011 A 
ATOM     14  C   UNL     1      49.827  57.215  21.644  1.00  0.00    +0.011 A 
ATOM     15  C   UNL     1      47.489  57.235  20.126  1.00  0.00    +0.001 A 
ATOM     16  C   UNL     1      48.884  58.229  21.818  1.00  0.00    +0.001 A 
ATOM     17  C   UNL     1      47.715  58.238  21.063  1.00  0.00    +0.000 A 
ENDBRANCH  11  12
BRANCH  11  18
ATOM     18  C   UNL     1      51.716  54.908  21.603  1.00  0.00    +0.114 C 
ATOM     19  O   UNL     1      52.663  55.730  21.403  1.00  0.00    -0.543 OA
ATOM     20  O   UNL     1      51.565  53.958  22.415  1.00  0.00    -0.543 OA
ENDBRANCH  11  18
BRANCH  11  21
ATOM     21  N   UNL     1      51.384  55.394  19.182  1.00  0.00    -0.339 N 
ATOM     22  H   UNL     1      52.280  54.936  19.022  1.00  0.00    +0.345 HD
ATOM     23  H   UNL     1      51.610  56.416  19.340  1.00  0.00    +0.345 HD
ATOM     24  H   UNL     1      50.777  55.397  18.355  1.00  0.00    +0.345 HD
ENDBRANCH  11  21
ENDBRANCH  10  11
ENDBRANCH   1  10
TORSDOF 9
ENDMDL
MODEL 2
REMARK VINA RESULT:    -6.872      1.928      5.618
REMARK INTER + INTRA:         -11.339
REMARK INTER:                 -10.283
REMARK INTRA:                  -1.056
REMARK UNBOUND:                -1.053
REMARK SMILES CCC[NH+](CC1CC1)C[C@]([NH3+])(C(=O)[O-])c1ccccc1
REMARK SMILES IDX 4 1 3 3 2 4 1 5 5 6 6 7 7 8 8 9 9 10 10 11 15 12 16 13 20 14
REMARK SMILES IDX 17 15 19 16 18 17 12 18 13 19 14 20 11 21
REMARK H PARENT 4 2 11 22 11 23 11 24
ROOT
ATOM      1  N   UNL     1      51.156  55.739  20.324  1.00  0.00    -0.329 N 
ATOM      2  H   UNL     1      50.648  55.095  20.996  1.00  0.00    +0.348 HD
ENDROOT
BRANCH   1   3
ATOM      3  C   UNL     1      52.255  56.312  21.183  1.00  0.00    +0.262 C 
BRANCH   3   4
ATOM      4  C   UNL     1      52.778  57.641  20.650  1.00  0.00    +0.058 C 
ATOM      5  C   UNL     1      52.787  58.696  21.747  1.00  0.00    +0.010 C 
ENDBRANCH   3   4
ENDBRANCH   1   3
BRANCH   1   6
ATOM      6  C   UNL     1      50.098  56.756  19.963  1.00  0.00    +0.265 C 
BRANCH   6   7
ATOM      7  C   UNL     1      48.986  56.884  20.957  1.00  0.00    +0.044 C 
ATOM      8  C   UNL     1      48.870  58.140  21.785  1.00  0.00    +0.010 C 
ATOM      9  C   UNL     1      47.831  57.834  20.743  1.00  0.00    +0.010 C 
ENDBRANCH   6   7
ENDBRANCH   1   6
BRANCH   1  10
ATOM     10  C   UNL     1      51.550  54.797  19.176  1.00  0.00    +0.343 C 
BRANCH  10  11
ATOM     11  C   UNL     1      51.128  53.285  19.306  1.00  0.00    +0.209 C 
BRANCH  11  12
ATOM     12  C   UNL     1      50.004  52.850  18.387  1.00  0.00    +0.024 A 
ATOM     13  C   UNL     1      49.077  53.800  17.908  1.00  0.00    +0.011 A 
ATOM     14  C   UNL     1      49.807  51.504  18.032  1.00  0.00    +0.011 A 
ATOM     15  C   UNL     1      48.019  53.420  17.081  1.00  0.00    +0.001 A 
ATOM     16  C   UNL     1      48.748  51.128  17.203  1.00  0.00    +0.001 A 
ATOM     17  C   UNL     1      47.857  52.085  16.726  1.00  0.00    +0.000 A 
ENDBRANCH  11  12
BRANCH  11  18
ATOM     18  C   UNL     1      52.512  52.591  19.071  1.00  0.00    +0.114 C 
ATOM     19  O   UNL     1      52.769  51.810  20.039  1.00  0.00    -0.543 OA
ATOM     20  O   UNL     1      53.186  52.974  18.080  1.00  0.00    -0.543 OA
ENDBRANCH  11  18
BRANCH  11  21
ATOM     21  N   UNL     1      50.712  52.952  20.756  1.00  0.00    -0.339 N 
ATOM     22  H   UNL     1      51.399  52.503  21.362  1.00  0.00    +0.345 HD
ATOM     23  H   UNL     1      49.971  52.219  20.575  1.00  0.00    +0.345 HD
ATOM     24  H   UNL     1      50.204  53.714  21.216  1.00  0.00    +0.345 HD
ENDBRANCH  11  21
ENDBRANCH  10  11
ENDBRANCH   1  10
TORSDOF 9
ENDMDL
MODEL 3
REMARK VINA RESULT:    -6.630      0.893      3.049
REMARK INTER + INTRA:         -10.977
REMARK INTER:                 -10.811
REMARK INTRA:                  -0.166
REMARK UNBOUND:                -1.053
REMARK SMILES CCC[NH+](CC1CC1)C[C@]([NH3+])(C(=O)[O-])c1ccccc1
REMARK SMILES IDX 4 1 3 3 2 4 1 5 5 6 6 7 7 8 8 9 9 10 10 11 15 12 16 13 20 14
REMARK SMILES IDX 17 15 19 16 18 17 12 18 13 19 14 20 11 21
REMARK H PARENT 4 2 11 22 11 23 11 24
ROOT
ATOM      1  N   UNL     1      50.856  52.878  19.846  1.00  0.00    -0.329 N 
ATOM      2  H   UNL     1      50.244  52.036  20.053  1.00  0.00    +0.348 HD
ENDROOT
BRANCH   1   3
ATOM      3  C   UNL     1      50.409  53.278  18.462  1.00  0.00    +0.262 C 
BRANCH   3   4
ATOM      4  C   UNL     1      49.298  52.383  17.927  1.00  0.00    +0.058 C 
ATOM      5  C   UNL     1      48.270  53.201  17.157  1.00  0.00    +0.010 C 
ENDBRANCH   3   4
ENDBRANCH   1   3
BRANCH   1   6
ATOM      6  C   UNL     1      52.251  52.299  19.871  1.00  0.00    +0.265 C 
BRANCH   6   7
ATOM      7  C   UNL     1      52.367  50.974  20.559  1.00  0.00    +0.044 C 
ATOM      8  C   UNL     1      51.332  49.908  20.301  1.00  0.00    +0.010 C 
ATOM      9  C   UNL     1      52.739  49.716  19.810  1.00  0.00    +0.010 C 
ENDBRANCH   6   7
ENDBRANCH   1   6
BRANCH   1  10
ATOM     10  C   UNL     1      50.541  53.827  21.012  1.00  0.00    +0.343 C 
BRANCH  10  11
ATOM     11  C   UNL     1      50.937  55.342  20.838  1.00  0.00    +0.209 C 
BRANCH  11  12
ATOM     12  C   UNL     1      49.774  56.313  20.822  1.00  0.00    +0.024 A 
ATOM     13  C   UNL     1      49.751  57.401  21.721  1.00  0.00    +0.011 A 
ATOM     14  C   UNL     1      48.667  56.139  19.973  1.00  0.00    +0.011 A 
ATOM     15  C   UNL     1      48.679  58.294  21.742  1.00  0.00    +0.001 A 
ATOM     16  C   UNL     1      47.598  57.037  19.997  1.00  0.00    +0.001 A 
ATOM     17  C   UNL     1      47.605  58.114  20.877  1.00  0.00    +0.000 A 
ENDBRANCH  11  12
BRANCH  11  18
ATOM     18  C   UNL     1      51.948  55.501  22.025  1.00  0.00    +0.114 C 
ATOM     19  O   UNL     1      52.833  56.359  21.721  1.00  0.00    -0.543 OA
ATOM     20  O   UNL     1      51.815  54.717  23.000  1.00  0.00    -0.543 OA
ENDBRANCH  11  18
BRANCH  11  21
ATOM     21  N   UNL     1      51.751  55.552  19.541  1.00  0.00    -0.339 N 
ATOM     22  H   UNL     1      52.403  56.335  19.503  1.00  0.00    +0.345 HD
ATOM     23  H   UNL     1      50.971  55.799  18.869  1.00  0.00    +0.345 HD
ATOM     24  H   UNL     1      52.141  54.682  19.164  1.00  0.00    +0.345 HD
ENDBRANCH  11  21
ENDBRANCH  10  11
ENDBRANCH   1  10
TORSDOF 9
ENDMDL
MODEL 4
REMARK VINA RESULT:    -6.263      2.048      3.864
REMARK INTER + INTRA:         -10.428
REMARK INTER:                  -9.372
REMARK INTRA:                  -1.057
REMARK UNBOUND:                -1.053
REMARK SMILES CCC[NH+](CC1CC1)C[C@]([NH3+])(C(=O)[O-])c1ccccc1
REMARK SMILES IDX 4 1 3 3 2 4 1 5 5 6 6 7 7 8 8 9 9 10 10 11 15 12 16 13 20 14
REMARK SMILES IDX 17 15 19 16 18 17 12 18 13 19 14 20 11 21
REMARK H PARENT 4 2 11 22 11 23 11 24
ROOT
ATOM      1  N   UNL     1      51.343  53.913  21.298  1.00  0.00    -0.329 N 
ATOM      2  H   UNL     1      51.928  54.385  20.549  1.00  0.00    +0.348 HD
ENDROOT
BRANCH   1   3
ATOM      3  C   UNL     1      51.741  54.660  22.546  1.00  0.00    +0.262 C 
BRANCH   3   4
ATOM      4  C   UNL     1      51.378  56.139  22.481  1.00  0.00    +0.058 C 
ATOM      5  C   UNL     1      52.579  56.971  22.052  1.00  0.00    +0.010 C 
ENDBRANCH   3   4
ENDBRANCH   1   3
BRANCH   1   6
ATOM      6  C   UNL     1      51.847  52.490  21.276  1.00  0.00    +0.265 C 
BRANCH   6   7
ATOM      7  C   UNL     1      50.809  51.462  20.949  1.00  0.00    +0.044 C 
ATOM      8  C   UNL     1      50.872  50.735  19.629  1.00  0.00    +0.010 C 
ATOM      9  C   UNL     1      51.133  49.987  20.906  1.00  0.00    +0.010 C 
ENDBRANCH   6   7
ENDBRANCH   1   6
BRANCH   1  10
ATOM     10  C   UNL     1      49.909  54.088  20.775  1.00  0.00    +0.343 C 
BRANCH  10  11
ATOM     11  C   UNL     1      49.730  54.798  19.380  1.00  0.00    +0.209 C 
BRANCH  11  12
ATOM     12  C   UNL     1      48.967  56.107  19.419  1.00  0.00    +0.024 A 
ATOM     13  C   UNL     1      48.663  56.710  20.658  1.00  0.00    +0.011 A 
ATOM     14  C   UNL     1      48.489  56.728  18.252  1.00  0.00    +0.011 A 
ATOM     15  C   UNL     1      47.941  57.902  20.721  1.00  0.00    +0.001 A 
ATOM     16  C   UNL     1      47.769  57.923  18.319  1.00  0.00    +0.001 A 
ATOM     17  C   UNL     1      47.497  58.510  19.551  1.00  0.00    +0.000 A 
ENDBRANCH  11  12
BRANCH  11  18
ATOM     18  C   UNL     1      51.225  54.889  18.923  1.00  0.00    +0.114 C 
ATOM     19  O   UNL     1      51.647  56.077  19.072  1.00  0.00    -0.543 OA
ATOM     20  O   UNL     1      51.727  53.864  18.393  1.00  0.00    -0.543 OA
ENDBRANCH  11  18
BRANCH  11  21
ATOM     21  N   UNL     1      49.021  53.864  18.374  1.00  0.00    -0.339 N 
ATOM     22  H   UNL     1      48.362  54.278  17.715  1.00  0.00    +0.345 HD
ATOM     23  H   UNL     1      48.434  53.285  19.037  1.00  0.00    +0.345 HD
ATOM     24  H   UNL     1      49.654  53.184  17.940  1.00  0.00    +0.345 HD
ENDBRANCH  11  21
ENDBRANCH  10  11
ENDBRANCH   1  10
TORSDOF 9
ENDMDL
MODEL 5
REMARK VINA RESULT:    -5.901      2.048      5.879
REMARK INTER + INTRA:          -9.886
REMARK INTER:                  -9.755
REMARK INTRA:                  -0.131
REMARK UNBOUND:                -1.053
REMARK SMILES CCC[NH+](CC1CC1)C[C@]([NH3+])(C(=O)[O-])c1ccccc1
REMARK SMILES IDX 4 1 3 3 2 4 1 5 5 6 6 7 7 8 8 9 9 10 10 11 15 12 16 13 20 14
REMARK SMILES IDX 17 15 19 16 18 17 12 18 13 19 14 20 11 21
REMARK H PARENT 4 2 11 22 11 23 11 24
ROOT
ATOM      1  N   UNL     1      50.610  56.247  19.680  1.00  0.00    -0.329 N 
ATOM      2  H   UNL     1      50.745  57.081  19.038  1.00  0.00    +0.348 HD
ENDROOT
BRANCH   1   3
ATOM      3  C   UNL     1      49.127  56.281  19.955  1.00  0.00    +0.262 C 
BRANCH   3   4
ATOM      4  C   UNL     1      48.771  57.202  21.117  1.00  0.00    +0.058 C 
ATOM      5  C   UNL     1      47.594  58.096  20.754  1.00  0.00    +0.010 C 
ENDBRANCH   3   4
ENDBRANCH   1   3
BRANCH   1   6
ATOM      6  C   UNL     1      51.442  56.609  20.887  1.00  0.00    +0.265 C 
BRANCH   6   7
ATOM      7  C   UNL     1      52.393  57.746  20.676  1.00  0.00    +0.044 C 
ATOM      8  C   UNL     1      53.230  58.240  21.829  1.00  0.00    +0.010 C 
ATOM      9  C   UNL     1      53.890  57.544  20.672  1.00  0.00    +0.010 C 
ENDBRANCH   6   7
ENDBRANCH   1   6
BRANCH   1  10
ATOM     10  C   UNL     1      51.167  55.080  18.851  1.00  0.00    +0.343 C 
BRANCH  10  11
ATOM     11  C   UNL     1      50.766  53.622  19.295  1.00  0.00    +0.209 C 
BRANCH  11  12
ATOM     12  C   UNL     1      49.705  52.959  18.440  1.00  0.00    +0.024 A 
ATOM     13  C   UNL     1      49.622  51.551  18.385  1.00  0.00    +0.011 A 
ATOM     14  C   UNL     1      48.820  53.701  17.639  1.00  0.00    +0.011 A 
ATOM     15  C   UNL     1      48.670  50.917  17.586  1.00  0.00    +0.001 A 
ATOM     16  C   UNL     1      47.867  53.061  16.842  1.00  0.00    +0.001 A 
ATOM     17  C   UNL     1      47.790  51.672  16.818  1.00  0.00    +0.000 A 
ENDBRANCH  11  12
BRANCH  11  18
ATOM     18  C   UNL     1      52.174  52.937  19.295  1.00  0.00    +0.114 C 
ATOM     19  O   UNL     1      52.784  53.213  18.216  1.00  0.00    -0.543 OA
ATOM     20  O   UNL     1      52.435  52.160  20.250  1.00  0.00    -0.543 OA
ENDBRANCH  11  18
BRANCH  11  21
ATOM     21  N   UNL     1      50.274  53.609  20.760  1.00  0.00    -0.339 N 
ATOM     22  H   UNL     1      49.452  54.164  20.997  1.00  0.00    +0.345 HD
ATOM     23  H   UNL     1      51.088  54.090  21.235  1.00  0.00    +0.345 HD
ATOM     24  H   UNL     1      50.261  52.671  21.173  1.00  0.00    +0.345 HD
ENDBRANCH  11  21
ENDBRANCH  10  11
ENDBRANCH   1  10
TORSDOF 9
ENDMDL
