MODEL 1
REMARK VINA RESULT:    -6.643      0.000      0.000
REMARK INTER + INTRA:          -8.815
REMARK INTER:                  -8.585
REMARK INTRA:                  -0.230
REMARK UNBOUND:                -0.230
REMARK SMILES C[C@@H]1CCC[C@H](OC[C@@H](C#N)NC2CC2)C1
REMARK SMILES IDX 8 1 7 2 6 3 2 4 3 5 16 6 4 7 5 8 1 9 9 10 10 11 11 12 12 13
REMARK SMILES IDX 13 15 14 16 15 17
REMARK H PARENT 12 14
ROOT
ATOM      1  C   UNL     1      50.475  49.490  20.307  1.00  0.00    +0.195 C 
ENDROOT
BRANCH   1   2
ATOM      2  O   UNL     1      50.115  49.220  18.947  1.00  0.00    -0.375 OA
BRANCH   2   3
ATOM      3  C   UNL     1      48.811  49.690  18.593  1.00  0.00    +0.118 C 
ATOM      4  C   UNL     1      46.422  48.870  18.318  1.00  0.00    -0.012 C 
ATOM      5  C   UNL     1      46.420  49.380  16.871  1.00  0.00    +0.003 C 
ATOM      6  C   UNL     1      47.844  48.514  18.764  1.00  0.00    +0.035 C 
ATOM      7  C   UNL     1      47.385  50.547  16.685  1.00  0.00    +0.003 C 
ATOM      8  C   UNL     1      48.794  50.194  17.146  1.00  0.00    +0.032 C 
ATOM      9  C   UNL     1      45.491  47.668  18.467  1.00  0.00    +0.008 C 
ENDBRANCH   2   3
ENDBRANCH   1   2
BRANCH   1  10
ATOM     10  C   UNL     1      51.964  49.895  20.380  1.00  0.00    +0.184 C 
ATOM     11  C   UNL     1      52.362  50.466  19.066  1.00  0.00    +0.084 C 
ATOM     12  N   UNL     1      52.657  50.937  18.045  1.00  0.00    -0.196 NA
BRANCH  10  13
ATOM     13  N   UNL     1      52.232  50.875  21.457  1.00  0.00    -0.297 NA
ATOM     14  H   UNL     1      53.183  50.763  21.806  1.00  0.00    +0.124 HD
BRANCH  13  15
ATOM     15  C   UNL     1      51.940  52.261  21.094  1.00  0.00    +0.055 C 
ATOM     16  C   UNL     1      51.681  53.243  22.202  1.00  0.00    +0.020 C 
ATOM     17  C   UNL     1      50.556  52.804  21.311  1.00  0.00    +0.020 C 
ENDBRANCH  13  15
ENDBRANCH  10  13
ENDBRANCH   1  10
TORSDOF 5
ENDMDL
MODEL 2
REMARK VINA RESULT:    -6.638      4.184      5.998
REMARK INTER + INTRA:          -8.809
REMARK INTER:                  -8.265
REMARK INTRA:                  -0.545
REMARK UNBOUND:                -0.230
REMARK SMILES C[C@@H]1CCC[C@H](OC[C@@H](C#N)NC2CC2)C1
REMARK SMILES IDX 8 1 7 2 6 3 2 4 3 5 16 6 4 7 5 8 1 9 9 10 10 11 11 12 12 13
REMARK SMILES IDX 13 15 14 16 15 17
REMARK H PARENT 12 14
ROOT
ATOM      1  C   UNL     1      52.036  55.607  21.024  1.00  0.00    +0.195 C 
ENDROOT
BRANCH   1   2
ATOM      2  O   UNL     1      51.992  54.287  21.578  1.00  0.00    -0.375 OA
BRANCH   2   3
ATOM      3  C   UNL     1      51.009  53.442  20.974  1.00  0.00    +0.118 C 
ATOM      4  C   UNL     1      50.705  51.075  20.098  1.00  0.00    -0.012 C 
ATOM      5  C   UNL     1      50.292  51.640  18.733  1.00  0.00    +0.003 C 
ATOM      6  C   UNL     1      51.635  52.051  20.828  1.00  0.00    +0.035 C 
ATOM      7  C   UNL     1      49.673  53.029  18.864  1.00  0.00    +0.003 C 
ATOM      8  C   UNL     1      50.594  53.991  19.604  1.00  0.00    +0.032 C 
ATOM      9  C   UNL     1      51.372  49.711  19.937  1.00  0.00    +0.008 C 
ENDBRANCH   2   3
ENDBRANCH   1   2
BRANCH   1  10
ATOM     10  C   UNL     1      52.034  56.650  22.164  1.00  0.00    +0.184 C 
ATOM     11  C   UNL     1      52.935  57.769  21.780  1.00  0.00    +0.084 C 
ATOM     12  N   UNL     1      53.619  58.652  21.460  1.00  0.00    -0.196 NA
BRANCH  10  13
ATOM     13  N   UNL     1      50.679  57.170  22.453  1.00  0.00    -0.297 NA
ATOM     14  H   UNL     1      50.727  57.904  23.160  1.00  0.00    +0.124 HD
BRANCH  13  15
ATOM     15  C   UNL     1      49.935  57.599  21.268  1.00  0.00    +0.055 C 
ATOM     16  C   UNL     1      48.588  58.234  21.470  1.00  0.00    +0.020 C 
ATOM     17  C   UNL     1      48.687  56.860  20.875  1.00  0.00    +0.020 C 
ENDBRANCH  13  15
ENDBRANCH  10  13
ENDBRANCH   1  10
TORSDOF 5
ENDMDL
MODEL 3
REMARK VINA RESULT:    -6.449      1.998      3.420
REMARK INTER + INTRA:          -8.564
REMARK INTER:                  -7.761
REMARK INTRA:                  -0.803
REMARK UNBOUND:                -0.230
REMARK SMILES C[C@@H]1CCC[C@H](OC[C@@H](C#N)NC2CC2)C1
REMARK SMILES IDX 8 1 7 2 6 3 2 4 3 5 16 6 4 7 5 8 1 9 9 10 10 11 11 12 12 13
REMARK SMILES IDX 13 15 14 16 15 17
REMARK H PARENT 12 14
ROOT
ATOM      1  C   UNL     1      49.501  49.317  19.016  1.00  0.00    +0.195 C 
ENDROOT
BRANCH   1   2
ATOM      2  O   UNL     1      49.325  48.756  17.711  1.00  0.00    -0.375 OA
BRANCH   2   3
ATOM      3  C   UNL     1      48.035  48.170  17.506  1.00  0.00    +0.118 C 
ATOM      4  C   UNL     1      46.260  47.878  15.710  1.00  0.00    -0.012 C 
ATOM      5  C   UNL     1      45.228  48.539  16.632  1.00  0.00    +0.003 C 
ATOM      6  C   UNL     1      47.673  48.379  16.031  1.00  0.00    +0.035 C 
ATOM      7  C   UNL     1      45.582  48.344  18.103  1.00  0.00    +0.003 C 
ATOM      8  C   UNL     1      46.993  48.830  18.415  1.00  0.00    +0.032 C 
ATOM      9  C   UNL     1      45.916  48.133  14.244  1.00  0.00    +0.008 C 
ENDBRANCH   2   3
ENDBRANCH   1   2
BRANCH   1  10
ATOM     10  C   UNL     1      50.171  50.704  18.900  1.00  0.00    +0.184 C 
ATOM     11  C   UNL     1      51.646  50.520  18.944  1.00  0.00    +0.084 C 
ATOM     12  N   UNL     1      52.798  50.364  18.950  1.00  0.00    -0.196 NA
BRANCH  10  13
ATOM     13  N   UNL     1      49.788  51.415  17.660  1.00  0.00    -0.297 NA
ATOM     14  H   UNL     1      49.723  50.758  16.883  1.00  0.00    +0.124 HD
BRANCH  13  15
ATOM     15  C   UNL     1      48.585  52.237  17.786  1.00  0.00    +0.055 C 
ATOM     16  C   UNL     1      47.458  51.994  16.822  1.00  0.00    +0.020 C 
ATOM     17  C   UNL     1      48.270  53.251  16.723  1.00  0.00    +0.020 C 
ENDBRANCH  13  15
ENDBRANCH  10  13
ENDBRANCH   1  10
TORSDOF 5
ENDMDL
MODEL 4
REMARK VINA RESULT:    -6.305      2.864      6.363
REMARK INTER + INTRA:          -8.378
REMARK INTER:                  -7.978
REMARK INTRA:                  -0.400
REMARK UNBOUND:                -0.230
REMARK SMILES C[C@@H]1CCC[C@H](OC[C@@H](C#N)NC2CC2)C1
REMARK SMILES IDX 8 1 7 2 6 3 2 4 3 5 16 6 4 7 5 8 1 9 9 10 10 11 11 12 12 13
REMARK SMILES IDX 13 15 14 16 15 17
REMARK H PARENT 12 14
ROOT
ATOM      1  C   UNL     1      50.499  52.729  18.730  1.00  0.00    +0.195 C 
ENDROOT
BRANCH   1   2
ATOM      2  O   UNL     1      51.168  53.967  18.997  1.00  0.00    -0.375 OA
BRANCH   2   3
ATOM      3  C   UNL     1      50.735  54.606  20.201  1.00  0.00    +0.118 C 
ATOM      4  C   UNL     1      49.235  56.492  21.009  1.00  0.00    -0.012 C 
ATOM      5  C   UNL     1      50.432  57.127  21.728  1.00  0.00    +0.003 C 
ATOM      6  C   UNL     1      49.703  55.667  19.805  1.00  0.00    +0.035 C 
ATOM      7  C   UNL     1      51.471  56.082  22.122  1.00  0.00    +0.003 C 
ATOM      8  C   UNL     1      51.921  55.253  20.924  1.00  0.00    +0.032 C 
ATOM      9  C   UNL     1      48.235  57.562  20.576  1.00  0.00    +0.008 C 
ENDBRANCH   2   3
ENDBRANCH   1   2
BRANCH   1  10
ATOM     10  C   UNL     1      51.541  51.635  18.406  1.00  0.00    +0.184 C 
ATOM     11  C   UNL     1      52.266  51.288  19.657  1.00  0.00    +0.084 C 
ATOM     12  N   UNL     1      52.806  51.003  20.645  1.00  0.00    -0.196 NA
BRANCH  10  13
ATOM     13  N   UNL     1      50.925  50.420  17.827  1.00  0.00    -0.297 NA
ATOM     14  H   UNL     1      51.465  49.594  18.084  1.00  0.00    +0.124 HD
BRANCH  13  15
ATOM     15  C   UNL     1      49.504  50.263  18.136  1.00  0.00    +0.055 C 
ATOM     16  C   UNL     1      49.075  49.036  18.891  1.00  0.00    +0.020 C 
ATOM     17  C   UNL     1      48.713  49.189  17.443  1.00  0.00    +0.020 C 
ENDBRANCH  13  15
ENDBRANCH  10  13
ENDBRANCH   1  10
TORSDOF 5
ENDMDL
MODEL 5
REMARK VINA RESULT:    -6.259      5.403      6.918
REMARK INTER + INTRA:          -8.319
REMARK INTER:                  -7.705
REMARK INTRA:                  -0.614
REMARK UNBOUND:                -0.230
REMARK SMILES C[C@@H]1CCC[C@H](OC[C@@H](C#N)NC2CC2)C1
REMARK SMILES IDX 8 1 7 2 6 3 2 4 3 5 16 6 4 7 5 8 1 9 9 10 10 11 11 12 12 13
REMARK SMILES IDX 13 15 14 16 15 17
REMARK H PARENT 12 14
ROOT
ATOM      1  C   UNL     1      50.554  54.669  20.609  1.00  0.00    +0.195 C 
ENDROOT
BRANCH   1   2
ATOM      2  O   UNL     1      49.939  55.158  19.411  1.00  0.00    -0.375 OA
BRANCH   2   3
ATOM      3  C   UNL     1      48.808  56.001  19.649  1.00  0.00    +0.118 C 
ATOM      4  C   UNL     1      47.472  57.869  18.561  1.00  0.00    -0.012 C 
ATOM      5  C   UNL     1      47.722  58.755  19.788  1.00  0.00    +0.003 C 
ATOM      6  C   UNL     1      48.603  56.849  18.389  1.00  0.00    +0.035 C 
ATOM      7  C   UNL     1      47.936  57.921  21.048  1.00  0.00    +0.003 C 
ATOM      8  C   UNL     1      49.050  56.898  20.868  1.00  0.00    +0.032 C 
ATOM      9  C   UNL     1      47.317  58.721  17.303  1.00  0.00    +0.008 C 
ENDBRANCH   2   3
ENDBRANCH   1   2
BRANCH   1  10
ATOM     10  C   UNL     1      52.091  54.684  20.447  1.00  0.00    +0.184 C 
ATOM     11  C   UNL     1      52.450  53.834  19.281  1.00  0.00    +0.084 C 
ATOM     12  N   UNL     1      52.720  53.191  18.351  1.00  0.00    -0.196 NA
BRANCH  10  13
ATOM     13  N   UNL     1      52.627  56.050  20.259  1.00  0.00    -0.297 NA
ATOM     14  H   UNL     1      52.103  56.537  19.532  1.00  0.00    +0.124 HD
BRANCH  13  15
ATOM     15  C   UNL     1      52.716  56.836  21.490  1.00  0.00    +0.055 C 
ATOM     16  C   UNL     1      52.359  58.294  21.426  1.00  0.00    +0.020 C 
ATOM     17  C   UNL     1      53.787  57.880  21.622  1.00  0.00    +0.020 C 
ENDBRANCH  13  15
ENDBRANCH  10  13
ENDBRANCH   1  10
TORSDOF 5
ENDMDL
