MODEL 1
REMARK VINA RESULT:    -9.160      0.000      0.000
REMARK INTER + INTRA:         -13.115
REMARK INTER:                 -12.373
REMARK INTRA:                  -0.742
REMARK UNBOUND:                -0.742
REMARK SMILES CCC[NH+]1CCC(NS(=O)(=O)c2c[nH]c(C(=O)N3CCCC3)c2)CC1
REMARK SMILES IDX 4 1 5 2 6 3 7 4 24 5 25 6 3 8 2 9 1 10 8 11 9 13 10 14 11 15
REMARK SMILES IDX 12 16 23 17 13 18 15 19 14 20 16 22 17 23 18 24 19 25 22 26
REMARK SMILES IDX 20 27 21 28
REMARK H PARENT 4 7 8 12 14 21
ROOT
ATOM      1  N   UNL     1      49.309  49.190  16.649  1.00  0.00    -0.335 N 
ATOM      2  C   UNL     1      48.576  48.408  17.705  1.00  0.00    +0.263 C 
ATOM      3  C   UNL     1      48.840  48.977  19.104  1.00  0.00    +0.081 C 
ATOM      4  C   UNL     1      49.783  50.186  19.100  1.00  0.00    +0.081 C 
ATOM      5  C   UNL     1      49.211  51.205  18.121  1.00  0.00    +0.081 C 
ATOM      6  C   UNL     1      48.995  50.663  16.711  1.00  0.00    +0.263 C 
ATOM      7  H   UNL     1      50.319  49.126  16.882  1.00  0.00    +0.348 HD
ENDROOT
BRANCH   1   8
ATOM      8  C   UNL     1      49.148  48.656  15.244  1.00  0.00    +0.261 C 
BRANCH   8   9
ATOM      9  C   UNL     1      47.951  49.293  14.546  1.00  0.00    +0.058 C 
ATOM     10  C   UNL     1      46.755  48.353  14.549  1.00  0.00    +0.010 C 
ENDBRANCH   8   9
ENDBRANCH   1   8
BRANCH   4  11
ATOM     11  N   UNL     1      51.144  49.669  18.766  1.00  0.00    -0.208 NA
ATOM     12  H   UNL     1      51.334  48.746  19.177  1.00  0.00    +0.141 HD
BRANCH  11  13
ATOM     13  S   UNL     1      52.533  50.600  19.067  1.00  0.00    +0.242 S 
ATOM     14  O   UNL     1      53.498  49.676  19.611  1.00  0.00    -0.207 OA
ATOM     15  O   UNL     1      52.784  51.373  17.874  1.00  0.00    -0.207 OA
BRANCH  13  16
ATOM     16  C   UNL     1      52.182  51.710  20.332  1.00  0.00    +0.100 A 
ATOM     17  C   UNL     1      52.105  53.119  20.208  1.00  0.00    +0.055 A 
ATOM     18  C   UNL     1      51.874  51.394  21.639  1.00  0.00    +0.104 A 
ATOM     19  C   UNL     1      51.755  53.641  21.445  1.00  0.00    +0.105 A 
ATOM     20  N   UNL     1      51.623  52.568  22.303  1.00  0.00    -0.356 N 
ATOM     21  H   UNL     1      51.332  52.642  23.270  1.00  0.00    +0.166 HD
BRANCH  19  22
ATOM     22  C   UNL     1      51.476  55.029  21.765  1.00  0.00    +0.270 C 
ATOM     23  O   UNL     1      52.065  55.592  22.685  1.00  0.00    -0.267 OA
ATOM     24  N   UNL     1      50.543  55.699  20.988  1.00  0.00    -0.337 N 
ATOM     25  C   UNL     1      49.430  55.096  20.260  1.00  0.00    +0.120 C 
ATOM     26  C   UNL     1      50.295  57.114  21.222  1.00  0.00    +0.120 C 
ATOM     27  C   UNL     1      48.377  56.199  20.174  1.00  0.00    +0.023 C 
ATOM     28  C   UNL     1      49.212  57.474  20.216  1.00  0.00    +0.023 C 
ENDBRANCH  19  22
ENDBRANCH  13  16
ENDBRANCH  11  13
ENDBRANCH   4  11
TORSDOF 6
ENDMDL
MODEL 2
REMARK VINA RESULT:    -8.436      1.563      2.089
REMARK INTER + INTRA:         -12.137
REMARK INTER:                 -11.342
REMARK INTRA:                  -0.795
REMARK UNBOUND:                -0.742
REMARK SMILES CCC[NH+]1CCC(NS(=O)(=O)c2c[nH]c(C(=O)N3CCCC3)c2)CC1
REMARK SMILES IDX 4 1 5 2 6 3 7 4 24 5 25 6 3 8 2 9 1 10 8 11 9 13 10 14 11 15
REMARK SMILES IDX 12 16 23 17 13 18 15 19 14 20 16 22 17 23 18 24 19 25 22 26
REMARK SMILES IDX 20 27 21 28
REMARK H PARENT 4 7 8 12 14 21
ROOT
ATOM      1  N   UNL     1      48.147  49.327  17.065  1.00  0.00    -0.335 N 
ATOM      2  C   UNL     1      47.803  50.769  17.327  1.00  0.00    +0.263 C 
ATOM      3  C   UNL     1      49.060  51.646  17.351  1.00  0.00    +0.081 C 
ATOM      4  C   UNL     1      50.355  50.859  17.116  1.00  0.00    +0.081 C 
ATOM      5  C   UNL     1      50.180  50.073  15.821  1.00  0.00    +0.081 C 
ATOM      6  C   UNL     1      48.961  49.156  15.807  1.00  0.00    +0.263 C 
ATOM      7  H   UNL     1      48.781  49.031  17.831  1.00  0.00    +0.348 HD
ENDROOT
BRANCH   1   8
ATOM      8  C   UNL     1      46.965  48.385  17.083  1.00  0.00    +0.261 C 
BRANCH   8   9
ATOM      9  C   UNL     1      45.681  49.117  17.458  1.00  0.00    +0.058 C 
ATOM     10  C   UNL     1      44.634  48.146  17.983  1.00  0.00    +0.010 C 
ENDBRANCH   8   9
ENDBRANCH   1   8
BRANCH   4  11
ATOM     11  N   UNL     1      50.586  50.035  18.340  1.00  0.00    -0.208 NA
ATOM     12  H   UNL     1      49.756  49.975  18.945  1.00  0.00    +0.141 HD
BRANCH  11  13
ATOM     13  S   UNL     1      51.890  50.357  19.380  1.00  0.00    +0.242 S 
ATOM     14  O   UNL     1      51.514  49.784  20.649  1.00  0.00    -0.207 OA
ATOM     15  O   UNL     1      53.090  49.970  18.677  1.00  0.00    -0.207 OA
BRANCH  13  16
ATOM     16  C   UNL     1      51.974  52.055  19.639  1.00  0.00    +0.100 A 
ATOM     17  C   UNL     1      51.385  52.766  20.712  1.00  0.00    +0.055 A 
ATOM     18  C   UNL     1      52.669  52.968  18.872  1.00  0.00    +0.104 A 
ATOM     19  C   UNL     1      51.726  54.105  20.580  1.00  0.00    +0.105 A 
ATOM     20  N   UNL     1      52.508  54.203  19.447  1.00  0.00    -0.356 N 
ATOM     21  H   UNL     1      52.940  55.060  19.123  1.00  0.00    +0.166 HD
BRANCH  19  22
ATOM     22  C   UNL     1      51.418  55.184  21.501  1.00  0.00    +0.270 C 
ATOM     23  O   UNL     1      52.007  55.279  22.576  1.00  0.00    -0.267 OA
ATOM     24  N   UNL     1      50.458  56.109  21.119  1.00  0.00    -0.337 N 
ATOM     25  C   UNL     1      49.350  55.875  20.197  1.00  0.00    +0.120 C 
ATOM     26  C   UNL     1      50.179  57.251  21.976  1.00  0.00    +0.120 C 
ATOM     27  C   UNL     1      48.269  56.865  20.628  1.00  0.00    +0.023 C 
ATOM     28  C   UNL     1      49.074  58.001  21.248  1.00  0.00    +0.023 C 
ENDBRANCH  19  22
ENDBRANCH  13  16
ENDBRANCH  11  13
ENDBRANCH   4  11
TORSDOF 6
ENDMDL
MODEL 3
REMARK VINA RESULT:    -7.912      2.095      7.559
REMARK INTER + INTRA:         -11.429
REMARK INTER:                 -10.882
REMARK INTRA:                  -0.547
REMARK UNBOUND:                -0.742
REMARK SMILES CCC[NH+]1CCC(NS(=O)(=O)c2c[nH]c(C(=O)N3CCCC3)c2)CC1
REMARK SMILES IDX 4 1 5 2 6 3 7 4 24 5 25 6 3 8 2 9 1 10 8 11 9 13 10 14 11 15
REMARK SMILES IDX 12 16 23 17 13 18 15 19 14 20 16 22 17 23 18 24 19 25 22 26
REMARK SMILES IDX 20 27 21 28
REMARK H PARENT 4 7 8 12 14 21
ROOT
ATOM      1  N   UNL     1      51.353  55.893  20.729  1.00  0.00    -0.335 N 
ATOM      2  C   UNL     1      49.929  55.701  20.278  1.00  0.00    +0.263 C 
ATOM      3  C   UNL     1      49.535  54.219  20.295  1.00  0.00    +0.081 C 
ATOM      4  C   UNL     1      50.669  53.294  20.751  1.00  0.00    +0.081 C 
ATOM      5  C   UNL     1      51.165  53.812  22.097  1.00  0.00    +0.081 C 
ATOM      6  C   UNL     1      51.611  55.270  22.078  1.00  0.00    +0.263 C 
ATOM      7  H   UNL     1      51.946  55.352  20.071  1.00  0.00    +0.348 HD
ENDROOT
BRANCH   1   8
ATOM      8  C   UNL     1      51.839  57.323  20.685  1.00  0.00    +0.261 C 
BRANCH   8   9
ATOM      9  C   UNL     1      53.037  57.527  21.608  1.00  0.00    +0.058 C 
ATOM     10  C   UNL     1      54.275  57.916  20.814  1.00  0.00    +0.010 C 
ENDBRANCH   8   9
ENDBRANCH   1   8
BRANCH   4  11
ATOM     11  N   UNL     1      51.683  53.282  19.654  1.00  0.00    -0.208 NA
ATOM     12  H   UNL     1      51.361  53.768  18.807  1.00  0.00    +0.141 HD
BRANCH  11  13
ATOM     13  S   UNL     1      52.375  51.828  19.116  1.00  0.00    +0.242 S 
ATOM     14  O   UNL     1      53.082  52.169  17.906  1.00  0.00    -0.207 OA
ATOM     15  O   UNL     1      53.030  51.230  20.255  1.00  0.00    -0.207 OA
BRANCH  13  16
ATOM     16  C   UNL     1      51.110  50.766  18.637  1.00  0.00    +0.100 A 
ATOM     17  C   UNL     1      50.370  50.839  17.433  1.00  0.00    +0.055 A 
ATOM     18  C   UNL     1      50.664  49.658  19.329  1.00  0.00    +0.104 A 
ATOM     19  C   UNL     1      49.479  49.775  17.410  1.00  0.00    +0.105 A 
ATOM     20  N   UNL     1      49.676  49.070  18.580  1.00  0.00    -0.356 N 
ATOM     21  H   UNL     1      49.191  48.214  18.820  1.00  0.00    +0.166 HD
BRANCH  19  22
ATOM     22  C   UNL     1      48.585  49.402  16.329  1.00  0.00    +0.270 C 
ATOM     23  O   UNL     1      48.949  49.482  15.158  1.00  0.00    -0.267 OA
ATOM     24  N   UNL     1      47.322  48.937  16.663  1.00  0.00    -0.337 N 
ATOM     25  C   UNL     1      46.573  49.260  17.874  1.00  0.00    +0.120 C 
ATOM     26  C   UNL     1      46.425  48.475  15.614  1.00  0.00    +0.120 C 
ATOM     27  C   UNL     1      45.105  49.114  17.476  1.00  0.00    +0.023 C 
ATOM     28  C   UNL     1      45.157  48.081  16.356  1.00  0.00    +0.023 C 
ENDBRANCH  19  22
ENDBRANCH  13  16
ENDBRANCH  11  13
ENDBRANCH   4  11
TORSDOF 6
ENDMDL
MODEL 4
REMARK VINA RESULT:    -7.488      2.032      7.192
REMARK INTER + INTRA:         -10.857
REMARK INTER:                 -10.115
REMARK INTRA:                  -0.742
REMARK UNBOUND:                -0.742
REMARK SMILES CCC[NH+]1CCC(NS(=O)(=O)c2c[nH]c(C(=O)N3CCCC3)c2)CC1
REMARK SMILES IDX 4 1 5 2 6 3 7 4 24 5 25 6 3 8 2 9 1 10 8 11 9 13 10 14 11 15
REMARK SMILES IDX 12 16 23 17 13 18 15 19 14 20 16 22 17 23 18 24 19 25 22 26
REMARK SMILES IDX 20 27 21 28
REMARK H PARENT 4 7 8 12 14 21
ROOT
ATOM      1  N   UNL     1      49.597  55.519  20.172  1.00  0.00    -0.335 N 
ATOM      2  C   UNL     1      50.407  55.898  21.382  1.00  0.00    +0.263 C 
ATOM      3  C   UNL     1      51.734  55.132  21.426  1.00  0.00    +0.081 C 
ATOM      4  C   UNL     1      51.919  54.167  20.250  1.00  0.00    +0.081 C 
ATOM      5  C   UNL     1      51.715  54.969  18.968  1.00  0.00    +0.081 C 
ATOM      6  C   UNL     1      50.374  55.691  18.891  1.00  0.00    +0.263 C 
ATOM      7  H   UNL     1      49.424  54.498  20.240  1.00  0.00    +0.348 HD
ENDROOT
BRANCH   1   8
ATOM      8  C   UNL     1      48.245  56.188  20.085  1.00  0.00    +0.261 C 
BRANCH   8   9
ATOM      9  C   UNL     1      48.377  57.643  19.644  1.00  0.00    +0.058 C 
ATOM     10  C   UNL     1      47.521  58.554  20.512  1.00  0.00    +0.010 C 
ENDBRANCH   8   9
ENDBRANCH   1   8
BRANCH   4  11
ATOM     11  N   UNL     1      50.959  53.041  20.461  1.00  0.00    -0.208 NA
ATOM     12  H   UNL     1      50.266  53.240  21.194  1.00  0.00    +0.141 HD
BRANCH  11  13
ATOM     13  S   UNL     1      51.512  51.465  20.766  1.00  0.00    +0.242 S 
ATOM     14  O   UNL     1      52.875  51.442  20.295  1.00  0.00    -0.207 OA
ATOM     15  O   UNL     1      51.157  51.154  22.131  1.00  0.00    -0.207 OA
BRANCH  13  16
ATOM     16  C   UNL     1      50.648  50.378  19.753  1.00  0.00    +0.100 A 
ATOM     17  C   UNL     1      49.876  50.728  18.619  1.00  0.00    +0.055 A 
ATOM     18  C   UNL     1      50.618  49.002  19.862  1.00  0.00    +0.104 A 
ATOM     19  C   UNL     1      49.383  49.559  18.056  1.00  0.00    +0.105 A 
ATOM     20  N   UNL     1      49.848  48.519  18.834  1.00  0.00    -0.356 N 
ATOM     21  H   UNL     1      49.682  47.540  18.638  1.00  0.00    +0.166 HD
BRANCH  19  22
ATOM     22  C   UNL     1      48.617  49.431  16.829  1.00  0.00    +0.270 C 
ATOM     23  O   UNL     1      49.097  49.775  15.751  1.00  0.00    -0.267 OA
ATOM     24  N   UNL     1      47.343  48.892  16.913  1.00  0.00    -0.337 N 
ATOM     25  C   UNL     1      46.463  48.928  18.079  1.00  0.00    +0.120 C 
ATOM     26  C   UNL     1      46.574  48.669  15.698  1.00  0.00    +0.120 C 
ATOM     27  C   UNL     1      45.049  48.863  17.502  1.00  0.00    +0.023 C 
ATOM     28  C   UNL     1      45.249  48.108  16.193  1.00  0.00    +0.023 C 
ENDBRANCH  19  22
ENDBRANCH  13  16
ENDBRANCH  11  13
ENDBRANCH   4  11
TORSDOF 6
ENDMDL
MODEL 5
REMARK VINA RESULT:    -6.882      5.155      8.428
REMARK INTER + INTRA:         -10.038
REMARK INTER:                  -9.310
REMARK INTRA:                  -0.728
REMARK UNBOUND:                -0.742
REMARK SMILES CCC[NH+]1CCC(NS(=O)(=O)c2c[nH]c(C(=O)N3CCCC3)c2)CC1
REMARK SMILES IDX 4 1 5 2 6 3 7 4 24 5 25 6 3 8 2 9 1 10 8 11 9 13 10 14 11 15
REMARK SMILES IDX 12 16 23 17 13 18 15 19 14 20 16 22 17 23 18 24 19 25 22 26
REMARK SMILES IDX 20 27 21 28
REMARK H PARENT 4 7 8 12 14 21
ROOT
ATOM      1  N   UNL     1      51.735  55.045  20.516  1.00  0.00    -0.335 N 
ATOM      2  C   UNL     1      52.838  56.008  20.168  1.00  0.00    +0.263 C 
ATOM      3  C   UNL     1      52.488  57.436  20.600  1.00  0.00    +0.081 C 
ATOM      4  C   UNL     1      51.112  57.550  21.267  1.00  0.00    +0.081 C 
ATOM      5  C   UNL     1      51.075  56.538  22.407  1.00  0.00    +0.081 C 
ATOM      6  C   UNL     1      51.368  55.104  21.977  1.00  0.00    +0.263 C 
ATOM      7  H   UNL     1      50.886  55.377  20.018  1.00  0.00    +0.348 HD
ENDROOT
BRANCH   1   8
ATOM      8  C   UNL     1      51.977  53.622  20.070  1.00  0.00    +0.261 C 
BRANCH   8   9
ATOM      9  C   UNL     1      51.354  53.358  18.703  1.00  0.00    +0.058 C 
ATOM     10  C   UNL     1      49.955  53.952  18.619  1.00  0.00    +0.010 C 
ENDBRANCH   8   9
ENDBRANCH   1   8
BRANCH   4  11
ATOM     11  N   UNL     1      50.095  57.345  20.192  1.00  0.00    -0.208 NA
ATOM     12  H   UNL     1      50.286  57.901  19.349  1.00  0.00    +0.141 HD
BRANCH  11  13
ATOM     13  S   UNL     1      48.438  57.541  20.506  1.00  0.00    +0.242 S 
ATOM     14  O   UNL     1      47.847  56.251  20.244  1.00  0.00    -0.207 OA
ATOM     15  O   UNL     1      48.330  58.199  21.786  1.00  0.00    -0.207 OA
BRANCH  13  16
ATOM     16  C   UNL     1      47.781  58.606  19.327  1.00  0.00    +0.100 A 
ATOM     17  C   UNL     1      47.482  59.977  19.514  1.00  0.00    +0.055 A 
ATOM     18  C   UNL     1      47.496  58.298  18.012  1.00  0.00    +0.104 A 
ATOM     19  C   UNL     1      47.014  60.484  18.310  1.00  0.00    +0.105 A 
ATOM     20  N   UNL     1      47.030  59.439  17.409  1.00  0.00    -0.356 N 
ATOM     21  H   UNL     1      46.779  59.524  16.431  1.00  0.00    +0.166 HD
BRANCH  19  22
ATOM     22  C   UNL     1      46.673  61.863  18.013  1.00  0.00    +0.270 C 
ATOM     23  O   UNL     1      47.521  62.640  17.578  1.00  0.00    -0.267 OA
ATOM     24  N   UNL     1      45.361  62.265  18.213  1.00  0.00    -0.337 N 
ATOM     25  C   UNL     1      44.414  61.684  19.161  1.00  0.00    +0.120 C 
ATOM     26  C   UNL     1      44.958  63.615  17.849  1.00  0.00    +0.120 C 
ATOM     27  C   UNL     1      43.450  62.822  19.496  1.00  0.00    +0.023 C 
ATOM     28  C   UNL     1      43.489  63.683  18.239  1.00  0.00    +0.023 C 
ENDBRANCH  19  22
ENDBRANCH  13  16
ENDBRANCH  11  13
ENDBRANCH   4  11
TORSDOF 6
ENDMDL
