MODEL 1
REMARK VINA RESULT:    -8.211      0.000      0.000
REMARK INTER + INTRA:         -11.646
REMARK INTER:                 -11.332
REMARK INTRA:                  -0.314
REMARK UNBOUND:                -0.314
REMARK SMILES CC(C)c1noc(C[NH+](C)[C@H](C)c2ccc(S(N)(=O)=O)cc2)n1
REMARK SMILES IDX 12 1 11 2 13 3 14 4 22 5 15 6 21 7 16 8 17 9 19 10 20 11
REMARK SMILES IDX 18 12 9 15 10 16 8 18 7 19 23 20 6 21 4 22 5 23 2 24 1 25
REMARK SMILES IDX 3 26
REMARK H PARENT 18 13 18 14 9 17
ROOT
ATOM      1  C   UNL     1      52.725  49.595  19.885  1.00  0.00    +0.081 C 
ATOM      2  C   UNL     1      52.239  50.683  18.917  1.00  0.00    +0.212 C 
ENDROOT
BRANCH   2   3
ATOM      3  C   UNL     1      52.137  52.022  19.631  1.00  0.00    +0.009 A 
ATOM      4  C   UNL     1      52.486  53.200  18.944  1.00  0.00    +0.011 A 
ATOM      5  C   UNL     1      51.686  52.122  20.961  1.00  0.00    +0.011 A 
ATOM      6  C   UNL     1      52.387  54.445  19.568  1.00  0.00    +0.022 A 
ATOM      7  C   UNL     1      51.588  53.367  21.587  1.00  0.00    +0.022 A 
ATOM      8  C   UNL     1      51.932  54.524  20.885  1.00  0.00    +0.082 A 
BRANCH   8   9
ATOM      9  S   UNL     1      51.870  56.100  21.694  1.00  0.00    +0.238 S 
ATOM     10  O   UNL     1      53.096  56.811  21.419  1.00  0.00    -0.207 OA
ATOM     11  O   UNL     1      50.564  56.675  21.483  1.00  0.00    -0.207 OA
BRANCH   9  12
ATOM     12  N   UNL     1      51.939  55.656  23.311  1.00  0.00    -0.225 NA
ATOM     13  H   UNL     1      52.796  56.027  23.728  1.00  0.00    +0.137 HD
ATOM     14  H   UNL     1      51.881  54.638  23.386  1.00  0.00    +0.137 HD
ENDBRANCH   9  12
ENDBRANCH   8   9
ENDBRANCH   2   3
BRANCH   2  15
ATOM     15  N   UNL     1      50.909  50.256  18.281  1.00  0.00    -0.324 N 
ATOM     16  C   UNL     1      50.073  51.421  17.813  1.00  0.00    +0.333 C 
ATOM     17  H   UNL     1      51.145  49.702  17.452  1.00  0.00    +0.348 HD
BRANCH  15  18
ATOM     18  C   UNL     1      50.078  49.315  19.175  1.00  0.00    +0.364 C 
BRANCH  18  19
ATOM     19  C   UNL     1      48.800  48.812  18.604  1.00  0.00    +0.281 A 
ATOM     20  N   UNL     1      47.563  48.980  19.022  1.00  0.00    -0.191 NA
ATOM     21  O   UNL     1      48.897  48.045  17.485  1.00  0.00    -0.333 OA
ATOM     22  C   UNL     1      46.848  48.269  18.085  1.00  0.00    +0.174 A 
ATOM     23  N   UNL     1      47.599  47.681  17.145  1.00  0.00    -0.062 NA
BRANCH  22  24
ATOM     24  C   UNL     1      45.358  48.154  18.134  1.00  0.00    +0.055 C 
ATOM     25  C   UNL     1      44.759  47.786  16.775  1.00  0.00    +0.016 C 
ATOM     26  C   UNL     1      44.911  47.161  19.209  1.00  0.00    +0.016 C 
ENDBRANCH  22  24
ENDBRANCH  18  19
ENDBRANCH  15  18
ENDBRANCH   2  15
TORSDOF 7
ENDMDL
MODEL 2
REMARK VINA RESULT:    -8.191      3.144      7.932
REMARK INTER + INTRA:         -11.619
REMARK INTER:                 -11.050
REMARK INTRA:                  -0.568
REMARK UNBOUND:                -0.314
REMARK SMILES CC(C)c1noc(C[NH+](C)[C@H](C)c2ccc(S(N)(=O)=O)cc2)n1
REMARK SMILES IDX 12 1 11 2 13 3 14 4 22 5 15 6 21 7 16 8 17 9 19 10 20 11
REMARK SMILES IDX 18 12 9 15 10 16 8 18 7 19 23 20 6 21 4 22 5 23 2 24 1 25
REMARK SMILES IDX 3 26
REMARK H PARENT 18 13 18 14 9 17
ROOT
ATOM      1  C   UNL     1      52.612  50.066  19.678  1.00  0.00    +0.081 C 
ATOM      2  C   UNL     1      51.350  50.822  20.118  1.00  0.00    +0.212 C 
ENDROOT
BRANCH   2   3
ATOM      3  C   UNL     1      50.151  50.376  19.296  1.00  0.00    +0.009 A 
ATOM      4  C   UNL     1      49.623  49.086  19.487  1.00  0.00    +0.011 A 
ATOM      5  C   UNL     1      49.538  51.226  18.355  1.00  0.00    +0.011 A 
ATOM      6  C   UNL     1      48.512  48.654  18.758  1.00  0.00    +0.022 A 
ATOM      7  C   UNL     1      48.427  50.796  17.625  1.00  0.00    +0.022 A 
ATOM      8  C   UNL     1      47.915  49.514  17.836  1.00  0.00    +0.082 A 
BRANCH   8   9
ATOM      9  S   UNL     1      46.545  48.940  16.867  1.00  0.00    +0.238 S 
ATOM     10  O   UNL     1      45.325  49.461  17.436  1.00  0.00    -0.207 OA
ATOM     11  O   UNL     1      46.881  49.072  15.471  1.00  0.00    -0.207 OA
BRANCH   9  12
ATOM     12  N   UNL     1      46.554  47.296  17.206  1.00  0.00    -0.225 NA
ATOM     13  H   UNL     1      46.582  46.770  16.330  1.00  0.00    +0.137 HD
ATOM     14  H   UNL     1      45.735  47.063  17.773  1.00  0.00    +0.137 HD
ENDBRANCH   9  12
ENDBRANCH   8   9
ENDBRANCH   2   3
BRANCH   2  15
ATOM     15  N   UNL     1      51.592  52.335  20.028  1.00  0.00    -0.324 N 
ATOM     16  C   UNL     1      52.771  52.698  19.162  1.00  0.00    +0.333 C 
ATOM     17  H   UNL     1      50.758  52.739  19.589  1.00  0.00    +0.348 HD
BRANCH  15  18
ATOM     18  C   UNL     1      51.697  53.020  21.405  1.00  0.00    +0.364 C 
BRANCH  18  19
ATOM     19  C   UNL     1      51.258  54.439  21.477  1.00  0.00    +0.281 A 
ATOM     20  N   UNL     1      50.236  55.038  20.904  1.00  0.00    -0.191 NA
ATOM     21  O   UNL     1      52.021  55.271  22.236  1.00  0.00    -0.333 OA
ATOM     22  C   UNL     1      50.379  56.332  21.350  1.00  0.00    +0.174 A 
ATOM     23  N   UNL     1      51.438  56.529  22.145  1.00  0.00    -0.062 NA
BRANCH  22  24
ATOM     24  C   UNL     1      49.435  57.423  20.956  1.00  0.00    +0.055 C 
ATOM     25  C   UNL     1      48.175  56.882  20.276  1.00  0.00    +0.016 C 
ATOM     26  C   UNL     1      49.070  58.304  22.152  1.00  0.00    +0.016 C 
ENDBRANCH  22  24
ENDBRANCH  18  19
ENDBRANCH  15  18
ENDBRANCH   2  15
TORSDOF 7
ENDMDL
MODEL 3
REMARK VINA RESULT:    -8.105      3.016      4.068
REMARK INTER + INTRA:         -11.499
REMARK INTER:                 -11.090
REMARK INTRA:                  -0.409
REMARK UNBOUND:                -0.314
REMARK SMILES CC(C)c1noc(C[NH+](C)[C@H](C)c2ccc(S(N)(=O)=O)cc2)n1
REMARK SMILES IDX 12 1 11 2 13 3 14 4 22 5 15 6 21 7 16 8 17 9 19 10 20 11
REMARK SMILES IDX 18 12 9 15 10 16 8 18 7 19 23 20 6 21 4 22 5 23 2 24 1 25
REMARK SMILES IDX 3 26
REMARK H PARENT 18 13 18 14 9 17
ROOT
ATOM      1  C   UNL     1      48.171  55.191  19.781  1.00  0.00    +0.081 C 
ATOM      2  C   UNL     1      49.463  54.383  19.966  1.00  0.00    +0.212 C 
ENDROOT
BRANCH   2   3
ATOM      3  C   UNL     1      50.605  55.297  20.382  1.00  0.00    +0.009 A 
ATOM      4  C   UNL     1      50.626  55.828  21.685  1.00  0.00    +0.011 A 
ATOM      5  C   UNL     1      51.658  55.617  19.503  1.00  0.00    +0.011 A 
ATOM      6  C   UNL     1      51.670  56.657  22.101  1.00  0.00    +0.022 A 
ATOM      7  C   UNL     1      52.703  56.448  19.918  1.00  0.00    +0.022 A 
ATOM      8  C   UNL     1      52.707  56.958  21.217  1.00  0.00    +0.082 A 
BRANCH   8   9
ATOM      9  S   UNL     1      53.997  58.062  21.728  1.00  0.00    +0.238 S 
ATOM     10  O   UNL     1      54.764  57.426  22.773  1.00  0.00    -0.207 OA
ATOM     11  O   UNL     1      54.599  58.642  20.554  1.00  0.00    -0.207 OA
BRANCH   9  12
ATOM     12  N   UNL     1      53.123  59.286  22.471  1.00  0.00    -0.225 NA
ATOM     13  H   UNL     1      52.139  59.013  22.529  1.00  0.00    +0.137 HD
ATOM     14  H   UNL     1      53.253  60.159  21.953  1.00  0.00    +0.137 HD
ENDBRANCH   9  12
ENDBRANCH   8   9
ENDBRANCH   2   3
BRANCH   2  15
ATOM     15  N   UNL     1      49.777  53.602  18.683  1.00  0.00    -0.324 N 
ATOM     16  C   UNL     1      48.649  53.624  17.683  1.00  0.00    +0.333 C 
ATOM     17  H   UNL     1      50.578  54.068  18.245  1.00  0.00    +0.348 HD
BRANCH  15  18
ATOM     18  C   UNL     1      50.243  52.156  18.946  1.00  0.00    +0.364 C 
BRANCH  18  19
ATOM     19  C   UNL     1      49.753  51.117  18.002  1.00  0.00    +0.281 A 
ATOM     20  N   UNL     1      50.139  50.841  16.774  1.00  0.00    -0.191 NA
ATOM     21  O   UNL     1      48.740  50.325  18.445  1.00  0.00    -0.333 OA
ATOM     22  C   UNL     1      49.306  49.796  16.443  1.00  0.00    +0.174 A 
ATOM     23  N   UNL     1      48.441  49.452  17.405  1.00  0.00    -0.062 NA
BRANCH  22  24
ATOM     24  C   UNL     1      49.358  49.124  15.108  1.00  0.00    +0.055 C 
ATOM     25  C   UNL     1      48.104  49.393  14.274  1.00  0.00    +0.016 C 
ATOM     26  C   UNL     1      50.618  49.518  14.334  1.00  0.00    +0.016 C 
ENDBRANCH  22  24
ENDBRANCH  18  19
ENDBRANCH  15  18
ENDBRANCH   2  15
TORSDOF 7
ENDMDL
MODEL 4
REMARK VINA RESULT:    -8.031      3.371      4.888
REMARK INTER + INTRA:         -11.397
REMARK INTER:                 -10.693
REMARK INTRA:                  -0.704
REMARK UNBOUND:                -0.314
REMARK SMILES CC(C)c1noc(C[NH+](C)[C@H](C)c2ccc(S(N)(=O)=O)cc2)n1
REMARK SMILES IDX 12 1 11 2 13 3 14 4 22 5 15 6 21 7 16 8 17 9 19 10 20 11
REMARK SMILES IDX 18 12 9 15 10 16 8 18 7 19 23 20 6 21 4 22 5 23 2 24 1 25
REMARK SMILES IDX 3 26
REMARK H PARENT 18 13 18 14 9 17
ROOT
ATOM      1  C   UNL     1      47.678  56.074  19.846  1.00  0.00    +0.081 C 
ATOM      2  C   UNL     1      48.929  55.218  19.599  1.00  0.00    +0.212 C 
ENDROOT
BRANCH   2   3
ATOM      3  C   UNL     1      50.170  55.933  20.111  1.00  0.00    +0.009 A 
ATOM      4  C   UNL     1      50.047  56.870  21.154  1.00  0.00    +0.011 A 
ATOM      5  C   UNL     1      51.449  55.671  19.582  1.00  0.00    +0.011 A 
ATOM      6  C   UNL     1      51.171  57.530  21.655  1.00  0.00    +0.022 A 
ATOM      7  C   UNL     1      52.574  56.332  20.083  1.00  0.00    +0.022 A 
ATOM      8  C   UNL     1      52.430  57.253  21.122  1.00  0.00    +0.082 A 
BRANCH   8   9
ATOM      9  S   UNL     1      53.846  58.139  21.718  1.00  0.00    +0.238 S 
ATOM     10  O   UNL     1      54.491  57.348  22.739  1.00  0.00    -0.207 OA
ATOM     11  O   UNL     1      54.551  58.693  20.589  1.00  0.00    -0.207 OA
BRANCH   9  12
ATOM     12  N   UNL     1      53.128  59.431  22.513  1.00  0.00    -0.225 NA
ATOM     13  H   UNL     1      53.751  60.241  22.475  1.00  0.00    +0.137 HD
ATOM     14  H   UNL     1      52.905  59.158  23.472  1.00  0.00    +0.137 HD
ENDBRANCH   9  12
ENDBRANCH   8   9
ENDBRANCH   2   3
BRANCH   2  15
ATOM     15  N   UNL     1      49.031  54.863  18.109  1.00  0.00    -0.324 N 
ATOM     16  C   UNL     1      48.450  55.920  17.205  1.00  0.00    +0.333 C 
ATOM     17  H   UNL     1      50.031  54.796  17.893  1.00  0.00    +0.348 HD
BRANCH  15  18
ATOM     18  C   UNL     1      48.449  53.476  17.770  1.00  0.00    +0.364 C 
BRANCH  18  19
ATOM     19  C   UNL     1      49.337  52.307  18.004  1.00  0.00    +0.281 A 
ATOM     20  N   UNL     1      49.951  51.918  19.101  1.00  0.00    -0.191 NA
ATOM     21  O   UNL     1      49.579  51.507  16.931  1.00  0.00    -0.333 OA
ATOM     22  C   UNL     1      50.614  50.790  18.671  1.00  0.00    +0.174 A 
ATOM     23  N   UNL     1      50.432  50.504  17.375  1.00  0.00    -0.062 NA
BRANCH  22  24
ATOM     24  C   UNL     1      51.478  49.975  19.578  1.00  0.00    +0.055 C 
ATOM     25  C   UNL     1      52.304  50.845  20.529  1.00  0.00    +0.016 C 
ATOM     26  C   UNL     1      50.655  48.950  20.360  1.00  0.00    +0.016 C 
ENDBRANCH  22  24
ENDBRANCH  18  19
ENDBRANCH  15  18
ENDBRANCH   2  15
TORSDOF 7
ENDMDL
MODEL 5
REMARK VINA RESULT:    -8.018      2.471      3.338
REMARK INTER + INTRA:         -11.380
REMARK INTER:                 -10.956
REMARK INTRA:                  -0.424
REMARK UNBOUND:                -0.314
REMARK SMILES CC(C)c1noc(C[NH+](C)[C@H](C)c2ccc(S(N)(=O)=O)cc2)n1
REMARK SMILES IDX 12 1 11 2 13 3 14 4 22 5 15 6 21 7 16 8 17 9 19 10 20 11
REMARK SMILES IDX 18 12 9 15 10 16 8 18 7 19 23 20 6 21 4 22 5 23 2 24 1 25
REMARK SMILES IDX 3 26
REMARK H PARENT 18 13 18 14 9 17
ROOT
ATOM      1  C   UNL     1      48.228  55.028  19.772  1.00  0.00    +0.081 C 
ATOM      2  C   UNL     1      49.559  54.275  19.905  1.00  0.00    +0.212 C 
ENDROOT
BRANCH   2   3
ATOM      3  C   UNL     1      50.652  55.211  20.397  1.00  0.00    +0.009 A 
ATOM      4  C   UNL     1      51.339  56.018  19.472  1.00  0.00    +0.011 A 
ATOM      5  C   UNL     1      50.989  55.308  21.761  1.00  0.00    +0.011 A 
ATOM      6  C   UNL     1      52.337  56.898  19.896  1.00  0.00    +0.022 A 
ATOM      7  C   UNL     1      51.987  56.188  22.187  1.00  0.00    +0.022 A 
ATOM      8  C   UNL     1      52.651  56.984  21.252  1.00  0.00    +0.082 A 
BRANCH   8   9
ATOM      9  S   UNL     1      53.962  58.056  21.778  1.00  0.00    +0.238 S 
ATOM     10  O   UNL     1      54.684  57.413  22.851  1.00  0.00    -0.207 OA
ATOM     11  O   UNL     1      54.609  58.600  20.610  1.00  0.00    -0.207 OA
BRANCH   9  12
ATOM     12  N   UNL     1      53.108  59.318  22.481  1.00  0.00    -0.225 NA
ATOM     13  H   UNL     1      53.763  59.958  22.938  1.00  0.00    +0.137 HD
ATOM     14  H   UNL     1      52.418  58.939  23.133  1.00  0.00    +0.137 HD
ENDBRANCH   9  12
ENDBRANCH   8   9
ENDBRANCH   2   3
BRANCH   2  15
ATOM     15  N   UNL     1      49.917  53.609  18.570  1.00  0.00    -0.324 N 
ATOM     16  C   UNL     1      48.778  53.608  17.582  1.00  0.00    +0.333 C 
ATOM     17  H   UNL     1      50.673  54.165  18.159  1.00  0.00    +0.348 HD
BRANCH  15  18
ATOM     18  C   UNL     1      50.498  52.190  18.731  1.00  0.00    +0.364 C 
BRANCH  18  19
ATOM     19  C   UNL     1      49.780  51.093  18.030  1.00  0.00    +0.281 A 
ATOM     20  N   UNL     1      48.704  50.423  18.386  1.00  0.00    -0.191 NA
ATOM     21  O   UNL     1      50.303  50.691  16.840  1.00  0.00    -0.333 OA
ATOM     22  C   UNL     1      48.551  49.550  17.332  1.00  0.00    +0.174 A 
ATOM     23  N   UNL     1      49.488  49.662  16.382  1.00  0.00    -0.062 NA
BRANCH  22  24
ATOM     24  C   UNL     1      47.440  48.551  17.275  1.00  0.00    +0.055 C 
ATOM     25  C   UNL     1      47.894  47.212  16.691  1.00  0.00    +0.016 C 
ATOM     26  C   UNL     1      46.799  48.353  18.650  1.00  0.00    +0.016 C 
ENDBRANCH  22  24
ENDBRANCH  18  19
ENDBRANCH  15  18
ENDBRANCH   2  15
TORSDOF 7
ENDMDL
