MODEL 1
REMARK VINA RESULT:    -8.033      0.000      0.000
REMARK INTER + INTRA:         -10.508
REMARK INTER:                 -10.381
REMARK INTRA:                  -0.127
REMARK UNBOUND:                -0.127
REMARK SMILES Cc1cc(N(C)C)ccc1NC(=O)NCC(=O)NC(C)(C)C
REMARK SMILES IDX 11 1 12 2 13 3 14 4 10 7 2 8 3 9 4 10 9 11 8 12 1 13 5 14
REMARK SMILES IDX 6 15 7 16 15 17 16 18 17 19 18 20 19 22 20 23 21 24 22 25
REMARK H PARENT 11 5 14 6 18 21
ROOT
ATOM      1  N   UNL     1      50.140  51.161  17.465  1.00  0.00    -0.308 N 
ATOM      2  C   UNL     1      50.836  51.691  18.528  1.00  0.00    +0.319 C 
ATOM      3  O   UNL     1      50.554  51.609  19.715  1.00  0.00    -0.248 OA
ATOM      4  N   UNL     1      51.978  52.319  18.088  1.00  0.00    -0.329 N 
ATOM      5  H   UNL     1      50.755  50.871  16.718  1.00  0.00    +0.171 HD
ATOM      6  H   UNL     1      51.939  52.728  17.162  1.00  0.00    +0.165 HD
ENDROOT
BRANCH   1   7
ATOM      7  C   UNL     1      48.886  50.516  17.516  1.00  0.00    +0.045 A 
ATOM      8  C   UNL     1      47.660  51.083  17.151  1.00  0.00    -0.025 A 
ATOM      9  C   UNL     1      46.478  50.315  17.301  1.00  0.00    +0.031 A 
ATOM     10  C   UNL     1      46.466  48.983  17.755  1.00  0.00    +0.036 A 
ATOM     11  C   UNL     1      48.906  49.173  17.906  1.00  0.00    +0.028 A 
ATOM     12  C   UNL     1      47.722  48.429  18.023  1.00  0.00    +0.028 A 
ATOM     13  C   UNL     1      47.502  52.460  16.566  1.00  0.00    +0.046 C 
BRANCH  10  14
ATOM     14  N   UNL     1      45.280  48.246  17.873  1.00  0.00    -0.378 N 
ATOM     15  C   UNL     1      44.626  47.756  16.660  1.00  0.00    +0.143 C 
ATOM     16  C   UNL     1      45.091  47.417  19.064  1.00  0.00    +0.143 C 
ENDBRANCH  10  14
ENDBRANCH   1   7
BRANCH   4  17
ATOM     17  C   UNL     1      52.816  53.025  19.035  1.00  0.00    +0.218 C 
BRANCH  17  18
ATOM     18  C   UNL     1      52.187  54.374  19.387  1.00  0.00    +0.239 C 
ATOM     19  O   UNL     1      51.770  55.143  18.523  1.00  0.00    -0.273 OA
ATOM     20  N   UNL     1      52.103  54.606  20.744  1.00  0.00    -0.350 N 
ATOM     21  H   UNL     1      52.540  53.932  21.361  1.00  0.00    +0.164 HD
BRANCH  20  22
ATOM     22  C   UNL     1      51.557  55.827  21.359  1.00  0.00    +0.032 C 
ATOM     23  C   UNL     1      51.674  55.685  22.888  1.00  0.00    +0.034 C 
ATOM     24  C   UNL     1      52.359  57.064  20.922  1.00  0.00    +0.034 C 
ATOM     25  C   UNL     1      50.072  56.008  21.005  1.00  0.00    +0.034 C 
ENDBRANCH  20  22
ENDBRANCH  17  18
ENDBRANCH   4  17
TORSDOF 5
ENDMDL
MODEL 2
REMARK VINA RESULT:    -7.776      1.619      2.318
REMARK INTER + INTRA:         -10.177
REMARK INTER:                  -9.999
REMARK INTRA:                  -0.178
REMARK UNBOUND:                -0.127
REMARK SMILES Cc1cc(N(C)C)ccc1NC(=O)NCC(=O)NC(C)(C)C
REMARK SMILES IDX 11 1 12 2 13 3 14 4 10 7 2 8 3 9 4 10 9 11 8 12 1 13 5 14
REMARK SMILES IDX 6 15 7 16 15 17 16 18 17 19 18 20 19 22 20 23 21 24 22 25
REMARK H PARENT 11 5 14 6 18 21
ROOT
ATOM      1  N   UNL     1      49.901  51.609  16.894  1.00  0.00    -0.308 N 
ATOM      2  C   UNL     1      50.680  51.504  18.023  1.00  0.00    +0.319 C 
ATOM      3  O   UNL     1      50.762  50.549  18.783  1.00  0.00    -0.248 OA
ATOM      4  N   UNL     1      51.441  52.638  18.188  1.00  0.00    -0.329 N 
ATOM      5  H   UNL     1      50.349  52.162  16.176  1.00  0.00    +0.171 HD
ATOM      6  H   UNL     1      51.043  53.502  17.840  1.00  0.00    +0.165 HD
ENDROOT
BRANCH   1   7
ATOM      7  C   UNL     1      48.937  50.681  16.445  1.00  0.00    +0.045 A 
ATOM      8  C   UNL     1      49.094  49.792  15.376  1.00  0.00    -0.025 A 
ATOM      9  C   UNL     1      48.010  48.950  15.022  1.00  0.00    +0.031 A 
ATOM     10  C   UNL     1      46.787  48.917  15.717  1.00  0.00    +0.036 A 
ATOM     11  C   UNL     1      47.756  50.620  17.191  1.00  0.00    +0.028 A 
ATOM     12  C   UNL     1      46.708  49.760  16.831  1.00  0.00    +0.028 A 
ATOM     13  C   UNL     1      50.363  49.632  14.583  1.00  0.00    +0.046 C 
BRANCH  10  14
ATOM     14  N   UNL     1      45.743  48.058  15.350  1.00  0.00    -0.378 N 
ATOM     15  C   UNL     1      44.649  47.830  16.294  1.00  0.00    +0.143 C 
ATOM     16  C   UNL     1      45.377  47.968  13.936  1.00  0.00    +0.143 C 
ENDBRANCH  10  14
ENDBRANCH   1   7
BRANCH   4  17
ATOM     17  C   UNL     1      52.272  52.777  19.367  1.00  0.00    +0.218 C 
BRANCH  17  18
ATOM     18  C   UNL     1      51.566  53.650  20.404  1.00  0.00    +0.239 C 
ATOM     19  O   UNL     1      50.622  53.233  21.072  1.00  0.00    -0.273 OA
ATOM     20  N   UNL     1      52.118  54.908  20.534  1.00  0.00    -0.350 N 
ATOM     21  H   UNL     1      52.851  55.165  19.883  1.00  0.00    +0.164 HD
BRANCH  20  22
ATOM     22  C   UNL     1      51.627  55.954  21.445  1.00  0.00    +0.032 C 
ATOM     23  C   UNL     1      52.528  57.192  21.278  1.00  0.00    +0.034 C 
ATOM     24  C   UNL     1      50.184  56.352  21.093  1.00  0.00    +0.034 C 
ATOM     25  C   UNL     1      51.708  55.495  22.909  1.00  0.00    +0.034 C 
ENDBRANCH  20  22
ENDBRANCH  17  18
ENDBRANCH   4  17
TORSDOF 5
ENDMDL
MODEL 3
REMARK VINA RESULT:    -7.044      2.414      7.757
REMARK INTER + INTRA:          -9.230
REMARK INTER:                  -9.546
REMARK INTRA:                   0.315
REMARK UNBOUND:                -0.127
REMARK SMILES Cc1cc(N(C)C)ccc1NC(=O)NCC(=O)NC(C)(C)C
REMARK SMILES IDX 11 1 12 2 13 3 14 4 10 7 2 8 3 9 4 10 9 11 8 12 1 13 5 14
REMARK SMILES IDX 6 15 7 16 15 17 16 18 17 19 18 20 19 22 20 23 21 24 22 25
REMARK H PARENT 11 5 14 6 18 21
ROOT
ATOM      1  N   UNL     1      50.205  52.312  17.750  1.00  0.00    -0.308 N 
ATOM      2  C   UNL     1      49.310  51.707  16.899  1.00  0.00    +0.319 C 
ATOM      3  O   UNL     1      48.158  52.048  16.667  1.00  0.00    -0.248 OA
ATOM      4  N   UNL     1      49.899  50.642  16.259  1.00  0.00    -0.329 N 
ATOM      5  H   UNL     1      51.154  52.246  17.410  1.00  0.00    +0.171 HD
ATOM      6  H   UNL     1      50.628  50.157  16.770  1.00  0.00    +0.165 HD
ENDROOT
BRANCH   1   7
ATOM      7  C   UNL     1      49.941  53.383  18.631  1.00  0.00    +0.045 A 
ATOM      8  C   UNL     1      50.466  53.530  19.919  1.00  0.00    -0.025 A 
ATOM      9  C   UNL     1      50.068  54.645  20.698  1.00  0.00    +0.031 A 
ATOM     10  C   UNL     1      49.202  55.652  20.233  1.00  0.00    +0.036 A 
ATOM     11  C   UNL     1      49.132  54.404  18.123  1.00  0.00    +0.028 A 
ATOM     12  C   UNL     1      48.772  55.509  18.909  1.00  0.00    +0.028 A 
ATOM     13  C   UNL     1      51.470  52.596  20.539  1.00  0.00    +0.046 C 
BRANCH  10  14
ATOM     14  N   UNL     1      48.844  56.752  21.024  1.00  0.00    -0.378 N 
ATOM     15  C   UNL     1      49.864  57.389  21.855  1.00  0.00    +0.143 C 
ATOM     16  C   UNL     1      47.784  57.639  20.544  1.00  0.00    +0.143 C 
ENDBRANCH  10  14
ENDBRANCH   1   7
BRANCH   4  17
ATOM     17  C   UNL     1      49.107  49.807  15.380  1.00  0.00    +0.218 C 
BRANCH  17  18
ATOM     18  C   UNL     1      48.407  48.714  16.188  1.00  0.00    +0.239 C 
ATOM     19  O   UNL     1      48.949  47.638  16.434  1.00  0.00    -0.273 OA
ATOM     20  N   UNL     1      47.152  49.075  16.633  1.00  0.00    -0.350 N 
ATOM     21  H   UNL     1      46.780  49.961  16.312  1.00  0.00    +0.164 HD
BRANCH  20  22
ATOM     22  C   UNL     1      46.254  48.211  17.417  1.00  0.00    +0.032 C 
ATOM     23  C   UNL     1      46.320  46.792  16.823  1.00  0.00    +0.034 C 
ATOM     24  C   UNL     1      46.704  48.145  18.885  1.00  0.00    +0.034 C 
ATOM     25  C   UNL     1      44.800  48.702  17.331  1.00  0.00    +0.034 C 
ENDBRANCH  20  22
ENDBRANCH  17  18
ENDBRANCH   4  17
TORSDOF 5
ENDMDL
MODEL 4
REMARK VINA RESULT:    -6.619      6.153      8.578
REMARK INTER + INTRA:          -8.681
REMARK INTER:                  -8.951
REMARK INTRA:                   0.270
REMARK UNBOUND:                -0.127
REMARK SMILES Cc1cc(N(C)C)ccc1NC(=O)NCC(=O)NC(C)(C)C
REMARK SMILES IDX 11 1 12 2 13 3 14 4 10 7 2 8 3 9 4 10 9 11 8 12 1 13 5 14
REMARK SMILES IDX 6 15 7 16 15 17 16 18 17 19 18 20 19 22 20 23 21 24 22 25
REMARK H PARENT 11 5 14 6 18 21
ROOT
ATOM      1  N   UNL     1      48.301  57.726  19.989  1.00  0.00    -0.308 N 
ATOM      2  C   UNL     1      47.801  58.164  18.784  1.00  0.00    +0.319 C 
ATOM      3  O   UNL     1      47.799  57.563  17.718  1.00  0.00    -0.248 OA
ATOM      4  N   UNL     1      47.224  59.404  18.925  1.00  0.00    -0.329 N 
ATOM      5  H   UNL     1      47.758  58.069  20.770  1.00  0.00    +0.171 HD
ATOM      6  H   UNL     1      47.618  60.006  19.639  1.00  0.00    +0.165 HD
ENDROOT
BRANCH   1   7
ATOM      7  C   UNL     1      49.030  56.540  20.219  1.00  0.00    +0.045 A 
ATOM      8  C   UNL     1      50.174  56.426  21.016  1.00  0.00    -0.025 A 
ATOM      9  C   UNL     1      50.818  55.167  21.113  1.00  0.00    +0.031 A 
ATOM     10  C   UNL     1      50.346  53.999  20.487  1.00  0.00    +0.036 A 
ATOM     11  C   UNL     1      48.504  55.380  19.642  1.00  0.00    +0.028 A 
ATOM     12  C   UNL     1      49.151  54.142  19.773  1.00  0.00    +0.028 A 
ATOM     13  C   UNL     1      50.762  57.551  21.824  1.00  0.00    +0.046 C 
BRANCH  10  14
ATOM     14  N   UNL     1      50.998  52.765  20.619  1.00  0.00    -0.378 N 
ATOM     15  C   UNL     1      51.597  52.415  21.906  1.00  0.00    +0.143 C 
ATOM     16  C   UNL     1      50.518  51.635  19.824  1.00  0.00    +0.143 C 
ENDBRANCH  10  14
ENDBRANCH   1   7
BRANCH   4  17
ATOM     17  C   UNL     1      46.712  60.092  17.757  1.00  0.00    +0.218 C 
BRANCH  17  18
ATOM     18  C   UNL     1      46.533  61.580  18.063  1.00  0.00    +0.239 C 
ATOM     19  O   UNL     1      46.728  62.042  19.186  1.00  0.00    -0.273 OA
ATOM     20  N   UNL     1      46.181  62.331  16.961  1.00  0.00    -0.350 N 
ATOM     21  H   UNL     1      45.982  61.834  16.101  1.00  0.00    +0.164 HD
BRANCH  20  22
ATOM     22  C   UNL     1      45.931  63.781  16.974  1.00  0.00    +0.032 C 
ATOM     23  C   UNL     1      45.447  64.194  15.572  1.00  0.00    +0.034 C 
ATOM     24  C   UNL     1      44.834  64.137  17.991  1.00  0.00    +0.034 C 
ATOM     25  C   UNL     1      47.217  64.562  17.289  1.00  0.00    +0.034 C 
ENDBRANCH  20  22
ENDBRANCH  17  18
ENDBRANCH   4  17
TORSDOF 5
ENDMDL
