MODEL 1
REMARK VINA RESULT:    -8.233      0.000      0.000
REMARK INTER + INTRA:         -11.910
REMARK INTER:                 -11.121
REMARK INTRA:                  -0.789
REMARK UNBOUND:                -0.789
REMARK SMILES CC(C)COc1ccc(N[C@H](C)C(=O)NC(N)=O)cc1Cl
REMARK SMILES IDX 9 1 8 2 7 3 6 4 20 5 19 6 21 7 10 8 11 10 12 11 13 12 14 13
REMARK SMILES IDX 15 14 16 15 18 16 17 17 5 21 4 22 2 23 1 24 3 25
REMARK H PARENT 10 9 15 18 17 19 17 20
ROOT
ATOM      1  C   UNL     1      50.002  54.120  20.044  1.00  0.00    +0.036 A 
ATOM      2  C   UNL     1      48.732  54.555  19.622  1.00  0.00    +0.029 A 
ATOM      3  C   UNL     1      48.275  55.845  19.920  1.00  0.00    +0.050 A 
ATOM      4  C   UNL     1      49.073  56.716  20.669  1.00  0.00    +0.138 A 
ATOM      5  C   UNL     1      50.306  56.273  21.154  1.00  0.00    +0.085 A 
ATOM      6  C   UNL     1      50.765  54.984  20.842  1.00  0.00    +0.050 A 
ATOM      7 Cl   UNL     1      51.323  57.301  22.100  1.00  0.00    -0.080 Cl
ENDROOT
BRANCH   1   8
ATOM      8  N   UNL     1      50.496  52.845  19.766  1.00  0.00    -0.374 N 
ATOM      9  H   UNL     1      51.234  52.547  20.403  1.00  0.00    +0.161 HD
BRANCH   8  10
ATOM     10  C   UNL     1      50.803  52.419  18.385  1.00  0.00    +0.166 C 
ATOM     11  C   UNL     1      49.882  51.249  18.033  1.00  0.00    +0.041 C 
BRANCH  10  12
ATOM     12  C   UNL     1      52.279  51.976  18.291  1.00  0.00    +0.250 C 
ATOM     13  O   UNL     1      53.201  52.746  18.011  1.00  0.00    -0.272 OA
ATOM     14  N   UNL     1      52.467  50.615  18.447  1.00  0.00    -0.277 N 
ATOM     15  C   UNL     1      52.752  50.204  19.716  1.00  0.00    +0.318 C 
ATOM     16  O   UNL     1      52.996  50.927  20.681  1.00  0.00    -0.249 OA
ATOM     17  N   UNL     1      52.710  48.853  19.854  1.00  0.00    -0.351 N 
ATOM     18  H   UNL     1      51.700  50.054  18.100  1.00  0.00    +0.174 HD
ATOM     19  H   UNL     1      53.017  48.551  20.778  1.00  0.00    +0.161 HD
ATOM     20  H   UNL     1      53.140  48.322  19.119  1.00  0.00    +0.161 HD
ENDBRANCH  10  12
ENDBRANCH   8  10
ENDBRANCH   1   8
BRANCH   4  21
ATOM     21  O   UNL     1      48.622  57.970  20.992  1.00  0.00    -0.492 OA
BRANCH  21  22
ATOM     22  C   UNL     1      47.419  58.303  20.292  1.00  0.00    +0.232 C 
BRANCH  22  23
ATOM     23  C   UNL     1      47.721  59.310  19.171  1.00  0.00    +0.020 C 
ATOM     24  C   UNL     1      46.912  60.597  19.342  1.00  0.00    +0.011 C 
ATOM     25  C   UNL     1      47.436  58.707  17.791  1.00  0.00    +0.011 C 
ENDBRANCH  22  23
ENDBRANCH  21  22
ENDBRANCH   4  21
TORSDOF 6
ENDMDL
MODEL 2
REMARK VINA RESULT:    -7.959      3.742      7.057
REMARK INTER + INTRA:         -11.539
REMARK INTER:                 -10.907
REMARK INTRA:                  -0.632
REMARK UNBOUND:                -0.789
REMARK SMILES CC(C)COc1ccc(N[C@H](C)C(=O)NC(N)=O)cc1Cl
REMARK SMILES IDX 9 1 8 2 7 3 6 4 20 5 19 6 21 7 10 8 11 10 12 11 13 12 14 13
REMARK SMILES IDX 15 14 16 15 18 16 17 17 5 21 4 22 2 23 1 24 3 25
REMARK H PARENT 10 9 15 18 17 19 17 20
ROOT
ATOM      1  C   UNL     1      50.326  53.732  19.227  1.00  0.00    +0.036 A 
ATOM      2  C   UNL     1      50.706  52.476  19.734  1.00  0.00    +0.029 A 
ATOM      3  C   UNL     1      50.249  51.290  19.147  1.00  0.00    +0.050 A 
ATOM      4  C   UNL     1      49.380  51.340  18.052  1.00  0.00    +0.138 A 
ATOM      5  C   UNL     1      48.937  52.579  17.581  1.00  0.00    +0.085 A 
ATOM      6  C   UNL     1      49.409  53.765  18.166  1.00  0.00    +0.050 A 
ATOM      7 Cl   UNL     1      47.849  52.698  16.245  1.00  0.00    -0.080 Cl
ENDROOT
BRANCH   1   8
ATOM      8  N   UNL     1      50.760  54.936  19.780  1.00  0.00    -0.374 N 
ATOM      9  H   UNL     1      51.769  55.072  19.718  1.00  0.00    +0.161 HD
BRANCH   8  10
ATOM     10  C   UNL     1      50.255  55.416  21.082  1.00  0.00    +0.166 C 
ATOM     11  C   UNL     1      49.679  56.819  20.881  1.00  0.00    +0.041 C 
BRANCH  10  12
ATOM     12  C   UNL     1      51.409  55.461  22.106  1.00  0.00    +0.250 C 
ATOM     13  O   UNL     1      51.935  54.451  22.580  1.00  0.00    -0.272 OA
ATOM     14  N   UNL     1      51.735  56.738  22.527  1.00  0.00    -0.277 N 
ATOM     15  C   UNL     1      52.744  57.343  21.836  1.00  0.00    +0.318 C 
ATOM     16  O   UNL     1      53.469  56.819  20.993  1.00  0.00    -0.249 OA
ATOM     17  N   UNL     1      52.874  58.660  22.142  1.00  0.00    -0.351 N 
ATOM     18  H   UNL     1      50.949  57.373  22.556  1.00  0.00    +0.174 HD
ATOM     19  H   UNL     1      53.688  59.080  21.694  1.00  0.00    +0.161 HD
ATOM     20  H   UNL     1      52.814  58.894  23.117  1.00  0.00    +0.161 HD
ENDBRANCH  10  12
ENDBRANCH   8  10
ENDBRANCH   1   8
BRANCH   4  21
ATOM     21  O   UNL     1      48.902  50.185  17.489  1.00  0.00    -0.492 OA
BRANCH  21  22
ATOM     22  C   UNL     1      48.213  49.369  18.442  1.00  0.00    +0.232 C 
BRANCH  22  23
ATOM     23  C   UNL     1      46.942  48.777  17.812  1.00  0.00    +0.020 C 
ATOM     24  C   UNL     1      46.008  49.876  17.303  1.00  0.00    +0.011 C 
ATOM     25  C   UNL     1      46.191  47.887  18.808  1.00  0.00    +0.011 C 
ENDBRANCH  22  23
ENDBRANCH  21  22
ENDBRANCH   4  21
TORSDOF 6
ENDMDL
MODEL 3
REMARK VINA RESULT:    -7.730      3.521      4.987
REMARK INTER + INTRA:         -11.230
REMARK INTER:                 -10.550
REMARK INTRA:                  -0.680
REMARK UNBOUND:                -0.789
REMARK SMILES CC(C)COc1ccc(N[C@H](C)C(=O)NC(N)=O)cc1Cl
REMARK SMILES IDX 9 1 8 2 7 3 6 4 20 5 19 6 21 7 10 8 11 10 12 11 13 12 14 13
REMARK SMILES IDX 15 14 16 15 18 16 17 17 5 21 4 22 2 23 1 24 3 25
REMARK H PARENT 10 9 15 18 17 19 17 20
ROOT
ATOM      1  C   UNL     1      48.917  56.481  20.166  1.00  0.00    +0.036 A 
ATOM      2  C   UNL     1      48.471  57.534  20.984  1.00  0.00    +0.029 A 
ATOM      3  C   UNL     1      47.743  58.605  20.451  1.00  0.00    +0.050 A 
ATOM      4  C   UNL     1      47.468  58.652  19.080  1.00  0.00    +0.138 A 
ATOM      5  C   UNL     1      47.965  57.649  18.244  1.00  0.00    +0.085 A 
ATOM      6  C   UNL     1      48.684  56.571  18.786  1.00  0.00    +0.050 A 
ATOM      7 Cl   UNL     1      47.672  57.668  16.542  1.00  0.00    -0.080 Cl
ENDROOT
BRANCH   1   8
ATOM      8  N   UNL     1      49.642  55.395  20.657  1.00  0.00    -0.374 N 
ATOM      9  H   UNL     1      49.303  55.052  21.555  1.00  0.00    +0.161 HD
BRANCH   8  10
ATOM     10  C   UNL     1      51.119  55.370  20.620  1.00  0.00    +0.166 C 
ATOM     11  C   UNL     1      51.560  53.973  20.177  1.00  0.00    +0.041 C 
BRANCH  10  12
ATOM     12  C   UNL     1      51.682  55.682  22.022  1.00  0.00    +0.250 C 
ATOM     13  O   UNL     1      51.977  54.810  22.843  1.00  0.00    -0.272 OA
ATOM     14  N   UNL     1      51.734  57.032  22.318  1.00  0.00    -0.277 N 
ATOM     15  C   UNL     1      52.921  57.647  22.048  1.00  0.00    +0.318 C 
ATOM     16  O   UNL     1      53.969  57.098  21.713  1.00  0.00    -0.249 OA
ATOM     17  N   UNL     1      52.849  59.000  22.150  1.00  0.00    -0.351 N 
ATOM     18  H   UNL     1      50.995  57.574  21.888  1.00  0.00    +0.174 HD
ATOM     19  H   UNL     1      53.760  59.443  22.041  1.00  0.00    +0.161 HD
ATOM     20  H   UNL     1      52.346  59.356  22.943  1.00  0.00    +0.161 HD
ENDBRANCH  10  12
ENDBRANCH   8  10
ENDBRANCH   1   8
BRANCH   4  21
ATOM     21  O   UNL     1      46.782  59.711  18.543  1.00  0.00    -0.492 OA
BRANCH  21  22
ATOM     22  C   UNL     1      46.727  60.825  19.441  1.00  0.00    +0.232 C 
BRANCH  22  23
ATOM     23  C   UNL     1      45.636  61.810  18.994  1.00  0.00    +0.020 C 
ATOM     24  C   UNL     1      45.679  63.100  19.814  1.00  0.00    +0.011 C 
ATOM     25  C   UNL     1      44.242  61.182  19.102  1.00  0.00    +0.011 C 
ENDBRANCH  22  23
ENDBRANCH  21  22
ENDBRANCH   4  21
TORSDOF 6
ENDMDL
MODEL 4
REMARK VINA RESULT:    -7.395      4.026      5.939
REMARK INTER + INTRA:         -10.777
REMARK INTER:                  -9.873
REMARK INTRA:                  -0.904
REMARK UNBOUND:                -0.789
REMARK SMILES CC(C)COc1ccc(N[C@H](C)C(=O)NC(N)=O)cc1Cl
REMARK SMILES IDX 9 1 8 2 7 3 6 4 20 5 19 6 21 7 10 8 11 10 12 11 13 12 14 13
REMARK SMILES IDX 15 14 16 15 18 16 17 17 5 21 4 22 2 23 1 24 3 25
REMARK H PARENT 10 9 15 18 17 19 17 20
ROOT
ATOM      1  C   UNL     1      49.787  49.687  19.005  1.00  0.00    +0.036 A 
ATOM      2  C   UNL     1      50.798  49.513  19.968  1.00  0.00    +0.029 A 
ATOM      3  C   UNL     1      51.558  50.599  20.422  1.00  0.00    +0.050 A 
ATOM      4  C   UNL     1      51.337  51.876  19.900  1.00  0.00    +0.138 A 
ATOM      5  C   UNL     1      50.385  52.052  18.891  1.00  0.00    +0.085 A 
ATOM      6  C   UNL     1      49.617  50.963  18.450  1.00  0.00    +0.050 A 
ATOM      7 Cl   UNL     1      50.085  53.605  18.198  1.00  0.00    -0.080 Cl
ENDROOT
BRANCH   1   8
ATOM      8  N   UNL     1      49.005  48.635  18.529  1.00  0.00    -0.374 N 
ATOM      9  H   UNL     1      49.551  47.841  18.196  1.00  0.00    +0.161 HD
BRANCH   8  10
ATOM     10  C   UNL     1      47.846  48.871  17.645  1.00  0.00    +0.166 C 
ATOM     11  C   UNL     1      46.585  48.416  18.383  1.00  0.00    +0.041 C 
BRANCH  10  12
ATOM     12  C   UNL     1      48.012  48.066  16.339  1.00  0.00    +0.250 C 
ATOM     13  O   UNL     1      47.089  47.450  15.800  1.00  0.00    -0.272 OA
ATOM     14  N   UNL     1      49.315  48.009  15.877  1.00  0.00    -0.277 N 
ATOM     15  C   UNL     1      49.655  48.963  14.963  1.00  0.00    +0.318 C 
ATOM     16  O   UNL     1      48.891  49.756  14.416  1.00  0.00    -0.249 OA
ATOM     17  N   UNL     1      50.989  48.998  14.711  1.00  0.00    -0.351 N 
ATOM     18  H   UNL     1      50.010  48.017  16.612  1.00  0.00    +0.174 HD
ATOM     19  H   UNL     1      51.222  49.646  13.959  1.00  0.00    +0.161 HD
ATOM     20  H   UNL     1      51.440  48.108  14.597  1.00  0.00    +0.161 HD
ENDBRANCH  10  12
ENDBRANCH   8  10
ENDBRANCH   1   8
BRANCH   4  21
ATOM     21  O   UNL     1      52.097  52.940  20.314  1.00  0.00    -0.492 OA
BRANCH  21  22
ATOM     22  C   UNL     1      51.743  53.369  21.634  1.00  0.00    +0.232 C 
BRANCH  22  23
ATOM     23  C   UNL     1      51.415  54.871  21.631  1.00  0.00    +0.020 C 
ATOM     24  C   UNL     1      52.179  55.607  20.531  1.00  0.00    +0.011 C 
ATOM     25  C   UNL     1      51.729  55.510  22.988  1.00  0.00    +0.011 C 
ENDBRANCH  22  23
ENDBRANCH  21  22
ENDBRANCH   4  21
TORSDOF 6
ENDMDL
MODEL 5
REMARK VINA RESULT:    -7.230      1.999      2.464
REMARK INTER + INTRA:         -10.555
REMARK INTER:                  -9.881
REMARK INTRA:                  -0.674
REMARK UNBOUND:                -0.789
REMARK SMILES CC(C)COc1ccc(N[C@H](C)C(=O)NC(N)=O)cc1Cl
REMARK SMILES IDX 9 1 8 2 7 3 6 4 20 5 19 6 21 7 10 8 11 10 12 11 13 12 14 13
REMARK SMILES IDX 15 14 16 15 18 16 17 17 5 21 4 22 2 23 1 24 3 25
REMARK H PARENT 10 9 15 18 17 19 17 20
ROOT
ATOM      1  C   UNL     1      49.021  55.577  19.603  1.00  0.00    +0.036 A 
ATOM      2  C   UNL     1      48.363  56.133  18.491  1.00  0.00    +0.029 A 
ATOM      3  C   UNL     1      47.890  57.451  18.515  1.00  0.00    +0.050 A 
ATOM      4  C   UNL     1      48.047  58.230  19.666  1.00  0.00    +0.138 A 
ATOM      5  C   UNL     1      48.635  57.669  20.802  1.00  0.00    +0.085 A 
ATOM      6  C   UNL     1      49.119  56.352  20.768  1.00  0.00    +0.050 A 
ATOM      7 Cl   UNL     1      48.836  58.581  22.256  1.00  0.00    -0.080 Cl
ENDROOT
BRANCH   1   8
ATOM      8  N   UNL     1      49.509  54.271  19.620  1.00  0.00    -0.374 N 
ATOM      9  H   UNL     1      49.934  54.006  20.508  1.00  0.00    +0.161 HD
BRANCH   8  10
ATOM     10  C   UNL     1      50.289  53.722  18.491  1.00  0.00    +0.166 C 
ATOM     11  C   UNL     1      49.545  52.499  17.950  1.00  0.00    +0.041 C 
BRANCH  10  12
ATOM     12  C   UNL     1      51.695  53.313  18.977  1.00  0.00    +0.250 C 
ATOM     13  O   UNL     1      52.729  53.572  18.356  1.00  0.00    -0.272 OA
ATOM     14  N   UNL     1      51.689  52.538  20.123  1.00  0.00    -0.277 N 
ATOM     15  C   UNL     1      51.826  53.223  21.295  1.00  0.00    +0.318 C 
ATOM     16  O   UNL     1      52.096  54.417  21.416  1.00  0.00    -0.249 OA
ATOM     17  N   UNL     1      51.596  52.449  22.387  1.00  0.00    -0.351 N 
ATOM     18  H   UNL     1      50.881  51.935  20.205  1.00  0.00    +0.174 HD
ATOM     19  H   UNL     1      51.793  52.943  23.257  1.00  0.00    +0.161 HD
ATOM     20  H   UNL     1      52.002  51.531  22.371  1.00  0.00    +0.161 HD
ENDBRANCH  10  12
ENDBRANCH   8  10
ENDBRANCH   1   8
BRANCH   4  21
ATOM     21  O   UNL     1      47.560  59.512  19.711  1.00  0.00    -0.492 OA
BRANCH  21  22
ATOM     22  C   UNL     1      47.702  60.183  18.454  1.00  0.00    +0.232 C 
BRANCH  22  23
ATOM     23  C   UNL     1      46.707  61.351  18.363  1.00  0.00    +0.020 C 
ATOM     24  C   UNL     1      46.706  62.184  19.645  1.00  0.00    +0.011 C 
ATOM     25  C   UNL     1      45.286  60.850  18.078  1.00  0.00    +0.011 C 
ENDBRANCH  22  23
ENDBRANCH  21  22
ENDBRANCH   4  21
TORSDOF 6
ENDMDL
