MODEL 1
REMARK VINA RESULT:    -9.058      0.000      0.000
REMARK INTER + INTRA:         -14.236
REMARK INTER:                 -13.294
REMARK INTRA:                  -0.942
REMARK UNBOUND:                -0.942
REMARK SMILES CCN(CCNC(=O)NNC(=O)C[C@H]1CCS(=O)(=O)C1)c1ccccc1C
REMARK SMILES IDX 5 1 4 2 3 3 2 4 1 5 21 6 22 7 26 8 23 9 25 10 24 11 27 12
REMARK SMILES IDX 6 13 7 14 8 15 9 16 10 19 11 20 12 21 13 23 14 24 15 25
REMARK SMILES IDX 20 26 16 27 17 28 18 29 19 30
REMARK H PARENT 6 17 9 18 10 22
ROOT
ATOM      1  C   UNL     1      52.808  53.145  19.133  1.00  0.00    +0.139 C 
ENDROOT
BRANCH   1   2
ATOM      2  C   UNL     1      51.925  54.401  19.265  1.00  0.00    +0.138 C 
BRANCH   2   3
ATOM      3  N   UNL     1      51.042  54.279  20.448  1.00  0.00    -0.370 N 
BRANCH   3   4
ATOM      4  C   UNL     1      51.664  53.771  21.685  1.00  0.00    +0.113 C 
ATOM      5  C   UNL     1      50.942  52.524  22.180  1.00  0.00    +0.027 C 
ENDBRANCH   3   4
BRANCH   3   6
ATOM      6  C   UNL     1      50.200  55.390  20.658  1.00  0.00    +0.040 A 
ATOM      7  C   UNL     1      50.662  56.361  21.568  1.00  0.00    +0.026 A 
ATOM      8  C   UNL     1      48.950  55.595  20.032  1.00  0.00    -0.028 A 
ATOM      9  C   UNL     1      49.916  57.504  21.862  1.00  0.00    +0.002 A 
ATOM     10  C   UNL     1      48.203  56.748  20.351  1.00  0.00    +0.005 A 
ATOM     11  C   UNL     1      48.685  57.698  21.251  1.00  0.00    +0.000 A 
ATOM     12  C   UNL     1      48.321  54.612  19.079  1.00  0.00    +0.046 C 
ENDBRANCH   3   6
ENDBRANCH   2   3
ENDBRANCH   1   2
BRANCH   1  13
ATOM     13  N   UNL     1      52.453  52.302  18.001  1.00  0.00    -0.335 N 
ATOM     14  C   UNL     1      51.409  51.421  18.101  1.00  0.00    +0.333 C 
ATOM     15  O   UNL     1      50.787  51.184  19.133  1.00  0.00    -0.247 OA
ATOM     16  N   UNL     1      51.114  50.830  16.886  1.00  0.00    -0.249 N 
ATOM     17  H   UNL     1      52.536  52.764  17.106  1.00  0.00    +0.165 HD
ATOM     18  H   UNL     1      51.933  50.600  16.321  1.00  0.00    +0.193 HD
BRANCH  16  19
ATOM     19  N   UNL     1      50.172  49.766  16.952  1.00  0.00    -0.266 N 
ATOM     20  C   UNL     1      49.054  49.919  16.151  1.00  0.00    +0.238 C 
ATOM     21  O   UNL     1      48.695  51.005  15.699  1.00  0.00    -0.273 OA
ATOM     22  H   UNL     1      50.617  48.849  16.970  1.00  0.00    +0.191 HD
BRANCH  20  23
ATOM     23  C   UNL     1      48.311  48.623  15.889  1.00  0.00    +0.106 C 
BRANCH  23  24
ATOM     24  C   UNL     1      47.649  48.077  17.168  1.00  0.00    +0.014 C 
ATOM     25  C   UNL     1      46.995  49.174  18.032  1.00  0.00    +0.021 C 
ATOM     26  C   UNL     1      46.504  47.109  16.838  1.00  0.00    +0.141 C 
ATOM     27  C   UNL     1      45.713  49.612  17.333  1.00  0.00    +0.137 C 
ATOM     28  S   UNL     1      45.062  48.132  16.572  1.00  0.00    +0.150 S 
ATOM     29  O   UNL     1      44.928  48.372  15.148  1.00  0.00    -0.229 OA
ATOM     30  O   UNL     1      43.973  47.624  17.381  1.00  0.00    -0.229 OA
ENDBRANCH  23  24
ENDBRANCH  20  23
ENDBRANCH  16  19
ENDBRANCH   1  13
TORSDOF 8
ENDMDL
MODEL 2
REMARK VINA RESULT:    -8.841      1.129      2.268
REMARK INTER + INTRA:         -13.917
REMARK INTER:                 -13.175
REMARK INTRA:                  -0.742
REMARK UNBOUND:                -0.942
REMARK SMILES CCN(CCNC(=O)NNC(=O)C[C@H]1CCS(=O)(=O)C1)c1ccccc1C
REMARK SMILES IDX 5 1 4 2 3 3 2 4 1 5 21 6 22 7 26 8 23 9 25 10 24 11 27 12
REMARK SMILES IDX 6 13 7 14 8 15 9 16 10 19 11 20 12 21 13 23 14 24 15 25
REMARK SMILES IDX 20 26 16 27 17 28 18 29 19 30
REMARK H PARENT 6 17 9 18 10 22
ROOT
ATOM      1  C   UNL     1      52.259  53.819  18.604  1.00  0.00    +0.139 C 
ENDROOT
BRANCH   1   2
ATOM      2  C   UNL     1      52.396  54.378  20.033  1.00  0.00    +0.138 C 
BRANCH   2   3
ATOM      3  N   UNL     1      51.144  54.148  20.791  1.00  0.00    -0.370 N 
BRANCH   3   4
ATOM      4  C   UNL     1      51.260  53.361  22.032  1.00  0.00    +0.113 C 
ATOM      5  C   UNL     1      50.939  51.895  21.774  1.00  0.00    +0.027 C 
ENDBRANCH   3   4
BRANCH   3   6
ATOM      6  C   UNL     1      50.330  55.292  20.925  1.00  0.00    +0.040 A 
ATOM      7  C   UNL     1      49.121  55.287  20.203  1.00  0.00    +0.026 A 
ATOM      8  C   UNL     1      50.637  56.421  21.718  1.00  0.00    -0.028 A 
ATOM      9  C   UNL     1      48.234  56.364  20.251  1.00  0.00    +0.002 A 
ATOM     10  C   UNL     1      49.736  57.506  21.744  1.00  0.00    +0.005 A 
ATOM     11  C   UNL     1      48.542  57.475  21.025  1.00  0.00    +0.000 A 
ATOM     12  C   UNL     1      51.916  56.573  22.498  1.00  0.00    +0.046 C 
ENDBRANCH   3   6
ENDBRANCH   2   3
ENDBRANCH   1   2
BRANCH   1  13
ATOM     13  N   UNL     1      52.146  52.370  18.555  1.00  0.00    -0.335 N 
ATOM     14  C   UNL     1      50.975  51.785  18.154  1.00  0.00    +0.333 C 
ATOM     15  O   UNL     1      49.930  52.389  17.927  1.00  0.00    -0.247 OA
ATOM     16  N   UNL     1      51.104  50.414  18.011  1.00  0.00    -0.249 N 
ATOM     17  H   UNL     1      52.985  51.905  18.236  1.00  0.00    +0.165 HD
ATOM     18  H   UNL     1      51.686  49.972  18.723  1.00  0.00    +0.193 HD
BRANCH  16  19
ATOM     19  N   UNL     1      49.884  49.720  17.785  1.00  0.00    -0.266 N 
ATOM     20  C   UNL     1      49.376  49.050  18.884  1.00  0.00    +0.238 C 
ATOM     21  O   UNL     1      50.058  48.753  19.864  1.00  0.00    -0.273 OA
ATOM     22  H   UNL     1      49.228  50.255  17.215  1.00  0.00    +0.191 HD
BRANCH  20  23
ATOM     23  C   UNL     1      47.903  48.711  18.763  1.00  0.00    +0.106 C 
BRANCH  23  24
ATOM     24  C   UNL     1      47.385  48.920  17.328  1.00  0.00    +0.014 C 
ATOM     25  C   UNL     1      47.475  47.651  16.457  1.00  0.00    +0.021 C 
ATOM     26  C   UNL     1      45.896  49.293  17.317  1.00  0.00    +0.141 C 
ATOM     27  C   UNL     1      46.376  46.696  16.913  1.00  0.00    +0.137 C 
ATOM     28  S   UNL     1      45.004  47.744  17.375  1.00  0.00    +0.150 S 
ATOM     29  O   UNL     1      44.661  47.466  18.756  1.00  0.00    -0.229 OA
ATOM     30  O   UNL     1      44.021  47.731  16.311  1.00  0.00    -0.229 OA
ENDBRANCH  23  24
ENDBRANCH  20  23
ENDBRANCH  16  19
ENDBRANCH   1  13
TORSDOF 8
ENDMDL
MODEL 3
REMARK VINA RESULT:    -8.426      1.719      2.346
REMARK INTER + INTRA:         -13.308
REMARK INTER:                 -12.832
REMARK INTRA:                  -0.476
REMARK UNBOUND:                -0.942
REMARK SMILES CCN(CCNC(=O)NNC(=O)C[C@H]1CCS(=O)(=O)C1)c1ccccc1C
REMARK SMILES IDX 5 1 4 2 3 3 2 4 1 5 21 6 22 7 26 8 23 9 25 10 24 11 27 12
REMARK SMILES IDX 6 13 7 14 8 15 9 16 10 19 11 20 12 21 13 23 14 24 15 25
REMARK SMILES IDX 20 26 16 27 17 28 18 29 19 30
REMARK H PARENT 6 17 9 18 10 22
ROOT
ATOM      1  C   UNL     1      52.263  53.710  20.624  1.00  0.00    +0.139 C 
ENDROOT
BRANCH   1   2
ATOM      2  C   UNL     1      51.337  54.514  21.556  1.00  0.00    +0.138 C 
BRANCH   2   3
ATOM      3  N   UNL     1      51.394  55.954  21.211  1.00  0.00    -0.370 N 
BRANCH   3   4
ATOM      4  C   UNL     1      52.358  56.343  20.167  1.00  0.00    +0.113 C 
ATOM      5  C   UNL     1      53.394  57.312  20.721  1.00  0.00    +0.027 C 
ENDBRANCH   3   4
BRANCH   3   6
ATOM      6  C   UNL     1      50.130  56.564  21.065  1.00  0.00    +0.040 A 
ATOM      7  C   UNL     1      49.878  57.682  21.883  1.00  0.00    +0.026 A 
ATOM      8  C   UNL     1      49.120  56.140  20.173  1.00  0.00    -0.028 A 
ATOM      9  C   UNL     1      48.663  58.368  21.834  1.00  0.00    +0.002 A 
ATOM     10  C   UNL     1      47.893  56.836  20.146  1.00  0.00    +0.005 A 
ATOM     11  C   UNL     1      47.669  57.944  20.962  1.00  0.00    +0.000 A 
ATOM     12  C   UNL     1      49.243  54.932  19.281  1.00  0.00    +0.046 C 
ENDBRANCH   3   6
ENDBRANCH   2   3
ENDBRANCH   1   2
BRANCH   1  13
ATOM     13  N   UNL     1      52.028  52.275  20.668  1.00  0.00    -0.335 N 
ATOM     14  C   UNL     1      51.533  51.625  19.568  1.00  0.00    +0.333 C 
ATOM     15  O   UNL     1      51.148  52.178  18.541  1.00  0.00    -0.247 OA
ATOM     16  N   UNL     1      51.531  50.252  19.737  1.00  0.00    -0.249 N 
ATOM     17  H   UNL     1      52.727  51.762  21.186  1.00  0.00    +0.165 HD
ATOM     18  H   UNL     1      51.278  49.945  20.677  1.00  0.00    +0.193 HD
BRANCH  16  19
ATOM     19  N   UNL     1      50.855  49.527  18.717  1.00  0.00    -0.266 N 
ATOM     20  C   UNL     1      49.668  48.931  19.107  1.00  0.00    +0.238 C 
ATOM     21  O   UNL     1      49.380  48.716  20.283  1.00  0.00    -0.273 OA
ATOM     22  H   UNL     1      50.867  50.009  17.819  1.00  0.00    +0.191 HD
BRANCH  20  23
ATOM     23  C   UNL     1      48.762  48.565  17.948  1.00  0.00    +0.106 C 
BRANCH  23  24
ATOM     24  C   UNL     1      47.439  49.354  17.985  1.00  0.00    +0.014 C 
ATOM     25  C   UNL     1      47.059  49.968  16.624  1.00  0.00    +0.021 C 
ATOM     26  C   UNL     1      46.255  48.447  18.347  1.00  0.00    +0.141 C 
ATOM     27  C   UNL     1      46.573  48.837  15.724  1.00  0.00    +0.137 C 
ATOM     28  S   UNL     1      45.724  47.701  16.811  1.00  0.00    +0.150 S 
ATOM     29  O   UNL     1      46.353  46.400  16.694  1.00  0.00    -0.229 OA
ATOM     30  O   UNL     1      44.295  47.890  16.669  1.00  0.00    -0.229 OA
ENDBRANCH  23  24
ENDBRANCH  20  23
ENDBRANCH  16  19
ENDBRANCH   1  13
TORSDOF 8
ENDMDL
MODEL 4
REMARK VINA RESULT:    -7.309      6.005      9.494
REMARK INTER + INTRA:         -11.669
REMARK INTER:                 -10.958
REMARK INTRA:                  -0.711
REMARK UNBOUND:                -0.942
REMARK SMILES CCN(CCNC(=O)NNC(=O)C[C@H]1CCS(=O)(=O)C1)c1ccccc1C
REMARK SMILES IDX 5 1 4 2 3 3 2 4 1 5 21 6 22 7 26 8 23 9 25 10 24 11 27 12
REMARK SMILES IDX 6 13 7 14 8 15 9 16 10 19 11 20 12 21 13 23 14 24 15 25
REMARK SMILES IDX 20 26 16 27 17 28 18 29 19 30
REMARK H PARENT 6 17 9 18 10 22
ROOT
ATOM      1  C   UNL     1      50.329  54.540  19.911  1.00  0.00    +0.139 C 
ENDROOT
BRANCH   1   2
ATOM      2  C   UNL     1      50.148  53.016  20.058  1.00  0.00    +0.138 C 
BRANCH   2   3
ATOM      3  N   UNL     1      50.410  52.346  18.763  1.00  0.00    -0.370 N 
BRANCH   3   4
ATOM      4  C   UNL     1      51.709  51.662  18.626  1.00  0.00    +0.113 C 
ATOM      5  C   UNL     1      52.819  52.664  18.339  1.00  0.00    +0.027 C 
ENDBRANCH   3   4
BRANCH   3   6
ATOM      6  C   UNL     1      49.323  51.592  18.273  1.00  0.00    +0.040 A 
ATOM      7  C   UNL     1      49.277  50.239  18.659  1.00  0.00    +0.026 A 
ATOM      8  C   UNL     1      48.298  52.090  17.438  1.00  0.00    -0.028 A 
ATOM      9  C   UNL     1      48.253  49.389  18.234  1.00  0.00    +0.002 A 
ATOM     10  C   UNL     1      47.279  51.215  17.006  1.00  0.00    +0.005 A 
ATOM     11  C   UNL     1      47.252  49.880  17.407  1.00  0.00    +0.000 A 
ATOM     12  C   UNL     1      48.257  53.502  16.914  1.00  0.00    +0.046 C 
ENDBRANCH   3   6
ENDBRANCH   2   3
ENDBRANCH   1   2
BRANCH   1  13
ATOM     13  N   UNL     1      49.075  55.276  19.912  1.00  0.00    -0.335 N 
ATOM     14  C   UNL     1      49.081  56.644  19.974  1.00  0.00    +0.333 C 
ATOM     15  O   UNL     1      50.081  57.334  20.148  1.00  0.00    -0.247 OA
ATOM     16  N   UNL     1      47.815  57.175  19.798  1.00  0.00    -0.249 N 
ATOM     17  H   UNL     1      48.369  54.881  19.307  1.00  0.00    +0.165 HD
ATOM     18  H   UNL     1      47.070  56.640  20.245  1.00  0.00    +0.193 HD
BRANCH  16  19
ATOM     19  N   UNL     1      47.715  58.573  20.041  1.00  0.00    -0.266 N 
ATOM     20  C   UNL     1      47.409  59.343  18.932  1.00  0.00    +0.238 C 
ATOM     21  O   UNL     1      47.562  58.948  17.778  1.00  0.00    -0.273 OA
ATOM     22  H   UNL     1      47.228  58.785  20.912  1.00  0.00    +0.191 HD
BRANCH  20  23
ATOM     23  C   UNL     1      46.872  60.718  19.276  1.00  0.00    +0.106 C 
BRANCH  23  24
ATOM     24  C   UNL     1      45.529  60.999  18.576  1.00  0.00    +0.014 C 
ATOM     25  C   UNL     1      44.649  62.014  19.332  1.00  0.00    +0.021 C 
ATOM     26  C   UNL     1      45.740  61.625  17.190  1.00  0.00    +0.141 C 
ATOM     27  C   UNL     1      45.257  63.398  19.129  1.00  0.00    +0.137 C 
ATOM     28  S   UNL     1      45.920  63.382  17.470  1.00  0.00    +0.150 S 
ATOM     29  O   UNL     1      47.335  63.691  17.541  1.00  0.00    -0.229 OA
ATOM     30  O   UNL     1      45.013  64.091  16.591  1.00  0.00    -0.229 OA
ENDBRANCH  23  24
ENDBRANCH  20  23
ENDBRANCH  16  19
ENDBRANCH   1  13
TORSDOF 8
ENDMDL
MODEL 5
REMARK VINA RESULT:    -6.779      2.181      3.464
REMARK INTER + INTRA:         -10.891
REMARK INTER:                 -10.993
REMARK INTRA:                   0.102
REMARK UNBOUND:                -0.942
REMARK SMILES CCN(CCNC(=O)NNC(=O)C[C@H]1CCS(=O)(=O)C1)c1ccccc1C
REMARK SMILES IDX 5 1 4 2 3 3 2 4 1 5 21 6 22 7 26 8 23 9 25 10 24 11 27 12
REMARK SMILES IDX 6 13 7 14 8 15 9 16 10 19 11 20 12 21 13 23 14 24 15 25
REMARK SMILES IDX 20 26 16 27 17 28 18 29 19 30
REMARK H PARENT 6 17 9 18 10 22
ROOT
ATOM      1  C   UNL     1      49.031  55.669  17.657  1.00  0.00    +0.139 C 
ENDROOT
BRANCH   1   2
ATOM      2  C   UNL     1      48.430  55.934  19.052  1.00  0.00    +0.138 C 
BRANCH   2   3
ATOM      3  N   UNL     1      49.429  56.603  19.917  1.00  0.00    -0.370 N 
BRANCH   3   4
ATOM      4  C   UNL     1      48.978  57.809  20.634  1.00  0.00    +0.113 C 
ATOM      5  C   UNL     1      47.457  57.875  20.677  1.00  0.00    +0.027 C 
ENDBRANCH   3   4
BRANCH   3   6
ATOM      6  C   UNL     1      50.181  55.720  20.720  1.00  0.00    +0.040 A 
ATOM      7  C   UNL     1      49.803  54.364  20.680  1.00  0.00    +0.026 A 
ATOM      8  C   UNL     1      51.266  56.093  21.544  1.00  0.00    -0.028 A 
ATOM      9  C   UNL     1      50.469  53.394  21.433  1.00  0.00    +0.002 A 
ATOM     10  C   UNL     1      51.918  55.104  22.309  1.00  0.00    +0.005 A 
ATOM     11  C   UNL     1      51.529  53.766  22.248  1.00  0.00    +0.000 A 
ATOM     12  C   UNL     1      51.738  57.513  21.714  1.00  0.00    +0.046 C 
ENDBRANCH   3   6
ENDBRANCH   2   3
ENDBRANCH   1   2
BRANCH   1  13
ATOM     13  N   UNL     1      48.277  54.702  16.875  1.00  0.00    -0.335 N 
ATOM     14  C   UNL     1      48.173  53.404  17.300  1.00  0.00    +0.333 C 
ATOM     15  O   UNL     1      48.772  52.932  18.262  1.00  0.00    -0.247 OA
ATOM     16  N   UNL     1      47.288  52.675  16.525  1.00  0.00    -0.249 N 
ATOM     17  H   UNL     1      47.439  55.080  16.455  1.00  0.00    +0.165 HD
ATOM     18  H   UNL     1      47.328  52.892  15.529  1.00  0.00    +0.193 HD
BRANCH  16  19
ATOM     19  N   UNL     1      47.277  51.278  16.788  1.00  0.00    -0.266 N 
ATOM     20  C   UNL     1      48.043  50.511  15.927  1.00  0.00    +0.238 C 
ATOM     21  O   UNL     1      48.412  50.907  14.823  1.00  0.00    -0.273 OA
ATOM     22  H   UNL     1      47.331  51.066  17.784  1.00  0.00    +0.191 HD
BRANCH  20  23
ATOM     23  C   UNL     1      48.379  49.137  16.473  1.00  0.00    +0.106 C 
BRANCH  23  24
ATOM     24  C   UNL     1      47.615  48.025  15.730  1.00  0.00    +0.014 C 
ATOM     25  C   UNL     1      47.351  46.781  16.601  1.00  0.00    +0.021 C 
ATOM     26  C   UNL     1      46.221  48.497  15.294  1.00  0.00    +0.141 C 
ATOM     27  C   UNL     1      46.246  47.134  17.592  1.00  0.00    +0.137 C 
ATOM     28  S   UNL     1      45.154  48.237  16.706  1.00  0.00    +0.150 S 
ATOM     29  O   UNL     1      45.063  49.481  17.446  1.00  0.00    -0.229 OA
ATOM     30  O   UNL     1      43.983  47.499  16.278  1.00  0.00    -0.229 OA
ENDBRANCH  23  24
ENDBRANCH  20  23
ENDBRANCH  16  19
ENDBRANCH   1  13
TORSDOF 8
ENDMDL
