MODEL 1
REMARK VINA RESULT:    -9.623      0.000      0.000
REMARK INTER + INTRA:         -14.826
REMARK INTER:                 -14.123
REMARK INTRA:                  -0.704
REMARK UNBOUND:                -0.704
REMARK SMILES CC(C)NS(=O)(=O)c1ccc(C(=O)NCc2ccc(C[NH+]3CCCC[C@@H]3C)cc2)cc1
REMARK SMILES IDX 14 1 12 2 13 3 15 5 16 6 19 7 18 8 28 9 17 10 29 11 20 12
REMARK SMILES IDX 21 13 26 14 25 15 24 16 22 17 23 18 27 19 11 21 10 22 30 23
REMARK SMILES IDX 9 24 31 25 8 26 5 27 6 28 7 29 4 30 2 32 1 33 3 34
REMARK H PARENT 14 4 21 20 4 31
ROOT
ATOM      1  N   UNL     1      50.946  49.823  18.766  1.00  0.00    -0.348 N 
ATOM      2  C   UNL     1      49.922  49.174  19.425  1.00  0.00    +0.251 C 
ATOM      3  O   UNL     1      49.941  48.923  20.625  1.00  0.00    -0.269 OA
ATOM      4  H   UNL     1      50.978  49.796  17.759  1.00  0.00    +0.164 HD
ENDROOT
BRANCH   1   5
ATOM      5  C   UNL     1      52.156  50.213  19.456  1.00  0.00    +0.152 C 
BRANCH   5   6
ATOM      6  C   UNL     1      52.125  51.678  19.822  1.00  0.00    -0.029 A 
ATOM      7  C   UNL     1      52.002  54.430  20.447  1.00  0.00    +0.006 A 
ATOM      8  C   UNL     1      51.556  53.466  21.364  1.00  0.00    +0.010 A 
ATOM      9  C   UNL     1      52.528  53.998  19.221  1.00  0.00    +0.010 A 
ATOM     10  C   UNL     1      51.611  52.104  21.051  1.00  0.00    +0.006 A 
ATOM     11  C   UNL     1      52.582  52.638  18.911  1.00  0.00    +0.006 A 
BRANCH   7  12
ATOM     12  C   UNL     1      51.913  55.899  20.768  1.00  0.00    +0.299 C 
BRANCH  12  13
ATOM     13  N   UNL     1      50.509  56.488  20.853  1.00  0.00    -0.329 N 
ATOM     14  C   UNL     1      49.739  56.499  19.533  1.00  0.00    +0.181 C 
ATOM     15  C   UNL     1      48.584  57.518  19.587  1.00  0.00    +0.065 C 
ATOM     16  C   UNL     1      48.000  57.679  20.983  1.00  0.00    +0.012 C 
ATOM     17  C   UNL     1      50.486  57.829  21.543  1.00  0.00    +0.262 C 
ATOM     18  C   UNL     1      49.059  58.137  21.985  1.00  0.00    +0.062 C 
ATOM     19  C   UNL     1      49.213  55.089  19.256  1.00  0.00    +0.075 C 
ATOM     20  H   UNL     1      50.007  55.850  21.481  1.00  0.00    +0.348 HD
ENDBRANCH  12  13
ENDBRANCH   7  12
ENDBRANCH   5   6
ENDBRANCH   1   5
BRANCH   2  21
ATOM     21  C   UNL     1      48.779  48.716  18.585  1.00  0.00    +0.039 A 
ATOM     22  C   UNL     1      49.026  48.421  17.235  1.00  0.00    +0.015 A 
ATOM     23  C   UNL     1      47.484  48.571  19.103  1.00  0.00    +0.015 A 
ATOM     24  C   UNL     1      47.981  48.016  16.399  1.00  0.00    +0.022 A 
ATOM     25  C   UNL     1      46.437  48.167  18.270  1.00  0.00    +0.022 A 
ATOM     26  C   UNL     1      46.692  47.891  16.922  1.00  0.00    +0.082 A 
BRANCH  26  27
ATOM     27  S   UNL     1      45.343  47.428  15.862  1.00  0.00    +0.240 S 
ATOM     28  O   UNL     1      44.109  47.882  16.463  1.00  0.00    -0.207 OA
ATOM     29  O   UNL     1      45.550  46.043  15.497  1.00  0.00    -0.207 OA
BRANCH  27  30
ATOM     30  N   UNL     1      45.647  48.339  14.496  1.00  0.00    -0.209 NA
ATOM     31  H   UNL     1      46.418  48.999  14.585  1.00  0.00    +0.141 HD
BRANCH  30  32
ATOM     32  C   UNL     1      45.269  47.847  13.169  1.00  0.00    +0.063 C 
ATOM     33  C   UNL     1      43.754  47.953  13.034  1.00  0.00    +0.025 C 
ATOM     34  C   UNL     1      45.972  48.680  12.104  1.00  0.00    +0.025 C 
ENDBRANCH  30  32
ENDBRANCH  27  30
ENDBRANCH  26  27
ENDBRANCH   2  21
TORSDOF 8
ENDMDL
MODEL 2
REMARK VINA RESULT:    -9.266      5.004      9.892
REMARK INTER + INTRA:         -14.302
REMARK INTER:                 -13.486
REMARK INTRA:                  -0.816
REMARK UNBOUND:                -0.704
REMARK SMILES CC(C)NS(=O)(=O)c1ccc(C(=O)NCc2ccc(C[NH+]3CCCC[C@@H]3C)cc2)cc1
REMARK SMILES IDX 14 1 12 2 13 3 15 5 16 6 19 7 18 8 28 9 17 10 29 11 20 12
REMARK SMILES IDX 21 13 26 14 25 15 24 16 22 17 23 18 27 19 11 21 10 22 30 23
REMARK SMILES IDX 9 24 31 25 8 26 5 27 6 28 7 29 4 30 2 32 1 33 3 34
REMARK H PARENT 14 4 21 20 4 31
ROOT
ATOM      1  N   UNL     1      49.934  54.695  19.466  1.00  0.00    -0.348 N 
ATOM      2  C   UNL     1      49.705  55.748  20.327  1.00  0.00    +0.251 C 
ATOM      3  O   UNL     1      50.079  55.762  21.494  1.00  0.00    -0.269 OA
ATOM      4  H   UNL     1      49.413  54.641  18.604  1.00  0.00    +0.164 HD
ENDROOT
BRANCH   1   5
ATOM      5  C   UNL     1      50.603  53.491  19.910  1.00  0.00    +0.152 C 
BRANCH   5   6
ATOM      6  C   UNL     1      50.155  52.294  19.107  1.00  0.00    -0.029 A 
ATOM      7  C   UNL     1      49.262  50.032  17.670  1.00  0.00    +0.006 A 
ATOM      8  C   UNL     1      48.950  51.329  17.232  1.00  0.00    +0.010 A 
ATOM      9  C   UNL     1      50.043  49.883  18.825  1.00  0.00    +0.010 A 
ATOM     10  C   UNL     1      49.387  52.448  17.949  1.00  0.00    +0.006 A 
ATOM     11  C   UNL     1      50.477  51.001  19.538  1.00  0.00    +0.006 A 
BRANCH   7  12
ATOM     12  C   UNL     1      48.764  48.826  16.918  1.00  0.00    +0.299 C 
BRANCH  12  13
ATOM     13  N   UNL     1      47.349  48.362  17.246  1.00  0.00    -0.329 N 
ATOM     14  C   UNL     1      46.260  48.942  16.345  1.00  0.00    +0.181 C 
ATOM     15  C   UNL     1      44.879  48.832  17.020  1.00  0.00    +0.065 C 
ATOM     16  C   UNL     1      44.759  47.616  17.928  1.00  0.00    +0.012 C 
ATOM     17  C   UNL     1      47.018  48.506  18.711  1.00  0.00    +0.262 C 
ATOM     18  C   UNL     1      45.809  47.636  19.036  1.00  0.00    +0.062 C 
ATOM     19  C   UNL     1      46.276  48.197  15.008  1.00  0.00    +0.075 C 
ATOM     20  H   UNL     1      47.369  47.350  17.070  1.00  0.00    +0.348 HD
ENDBRANCH  12  13
ENDBRANCH   7  12
ENDBRANCH   5   6
ENDBRANCH   1   5
BRANCH   2  21
ATOM     21  C   UNL     1      48.902  56.883  19.787  1.00  0.00    +0.039 A 
ATOM     22  C   UNL     1      48.522  56.842  18.437  1.00  0.00    +0.015 A 
ATOM     23  C   UNL     1      48.519  57.971  20.585  1.00  0.00    +0.015 A 
ATOM     24  C   UNL     1      47.795  57.895  17.876  1.00  0.00    +0.022 A 
ATOM     25  C   UNL     1      47.792  59.026  20.028  1.00  0.00    +0.022 A 
ATOM     26  C   UNL     1      47.433  58.982  18.676  1.00  0.00    +0.082 A 
BRANCH  26  27
ATOM     27  S   UNL     1      46.553  60.353  17.968  1.00  0.00    +0.240 S 
ATOM     28  O   UNL     1      45.886  59.902  16.767  1.00  0.00    -0.207 OA
ATOM     29  O   UNL     1      47.463  61.479  17.958  1.00  0.00    -0.207 OA
BRANCH  27  30
ATOM     30  N   UNL     1      45.405  60.670  19.139  1.00  0.00    -0.209 NA
ATOM     31  H   UNL     1      45.718  60.519  20.097  1.00  0.00    +0.141 HD
BRANCH  30  32
ATOM     32  C   UNL     1      44.308  61.607  18.878  1.00  0.00    +0.063 C 
ATOM     33  C   UNL     1      43.023  61.003  19.434  1.00  0.00    +0.025 C 
ATOM     34  C   UNL     1      44.617  62.942  19.545  1.00  0.00    +0.025 C 
ENDBRANCH  30  32
ENDBRANCH  27  30
ENDBRANCH  26  27
ENDBRANCH   2  21
TORSDOF 8
ENDMDL
MODEL 3
REMARK VINA RESULT:    -9.065      4.081      6.092
REMARK INTER + INTRA:         -14.008
REMARK INTER:                 -12.952
REMARK INTRA:                  -1.056
REMARK UNBOUND:                -0.704
REMARK SMILES CC(C)NS(=O)(=O)c1ccc(C(=O)NCc2ccc(C[NH+]3CCCC[C@@H]3C)cc2)cc1
REMARK SMILES IDX 14 1 12 2 13 3 15 5 16 6 19 7 18 8 28 9 17 10 29 11 20 12
REMARK SMILES IDX 21 13 26 14 25 15 24 16 22 17 23 18 27 19 11 21 10 22 30 23
REMARK SMILES IDX 9 24 31 25 8 26 5 27 6 28 7 29 4 30 2 32 1 33 3 34
REMARK H PARENT 14 4 21 20 4 31
ROOT
ATOM      1  N   UNL     1      48.622  54.789  19.423  1.00  0.00    -0.348 N 
ATOM      2  C   UNL     1      49.688  54.129  18.849  1.00  0.00    +0.251 C 
ATOM      3  O   UNL     1      50.851  54.501  18.952  1.00  0.00    -0.269 OA
ATOM      4  H   UNL     1      47.686  54.572  19.118  1.00  0.00    +0.164 HD
ENDROOT
BRANCH   1   5
ATOM      5  C   UNL     1      48.809  56.020  20.160  1.00  0.00    +0.152 C 
BRANCH   5   6
ATOM      6  C   UNL     1      48.188  57.188  19.432  1.00  0.00    -0.029 A 
ATOM      7  C   UNL     1      47.099  59.421  18.087  1.00  0.00    +0.006 A 
ATOM      8  C   UNL     1      47.518  58.287  17.373  1.00  0.00    +0.010 A 
ATOM      9  C   UNL     1      47.215  59.414  19.485  1.00  0.00    +0.010 A 
ATOM     10  C   UNL     1      48.063  57.186  18.039  1.00  0.00    +0.006 A 
ATOM     11  C   UNL     1      47.760  58.313  20.147  1.00  0.00    +0.006 A 
BRANCH   7  12
ATOM     12  C   UNL     1      46.542  60.622  17.369  1.00  0.00    +0.299 C 
BRANCH  12  13
ATOM     13  N   UNL     1      45.533  61.463  18.142  1.00  0.00    -0.329 N 
ATOM     14  C   UNL     1      44.260  61.807  17.368  1.00  0.00    +0.181 C 
ATOM     15  C   UNL     1      43.550  63.019  18.001  1.00  0.00    +0.065 C 
ATOM     16  C   UNL     1      43.752  63.104  19.508  1.00  0.00    +0.012 C 
ATOM     17  C   UNL     1      46.161  62.677  18.782  1.00  0.00    +0.262 C 
ATOM     18  C   UNL     1      45.232  63.201  19.872  1.00  0.00    +0.062 C 
ATOM     19  C   UNL     1      43.344  60.582  17.356  1.00  0.00    +0.075 C 
ATOM     20  H   UNL     1      45.249  60.860  18.923  1.00  0.00    +0.348 HD
ENDBRANCH  12  13
ENDBRANCH   7  12
ENDBRANCH   5   6
ENDBRANCH   1   5
BRANCH   2  21
ATOM     21  C   UNL     1      49.358  52.938  18.015  1.00  0.00    +0.039 A 
ATOM     22  C   UNL     1      48.310  53.048  17.087  1.00  0.00    +0.015 A 
ATOM     23  C   UNL     1      50.061  51.729  18.128  1.00  0.00    +0.015 A 
ATOM     24  C   UNL     1      47.943  51.951  16.303  1.00  0.00    +0.022 A 
ATOM     25  C   UNL     1      49.697  50.630  17.346  1.00  0.00    +0.022 A 
ATOM     26  C   UNL     1      48.640  50.748  16.437  1.00  0.00    +0.082 A 
BRANCH  26  27
ATOM     27  S   UNL     1      48.154  49.328  15.486  1.00  0.00    +0.240 S 
ATOM     28  O   UNL     1      48.975  48.206  15.882  1.00  0.00    -0.207 OA
ATOM     29  O   UNL     1      48.060  49.756  14.107  1.00  0.00    -0.207 OA
BRANCH  27  30
ATOM     30  N   UNL     1      46.592  49.072  16.019  1.00  0.00    -0.209 NA
ATOM     31  H   UNL     1      45.864  49.361  15.368  1.00  0.00    +0.141 HD
BRANCH  30  32
ATOM     32  C   UNL     1      46.301  48.031  17.010  1.00  0.00    +0.063 C 
ATOM     33  C   UNL     1      46.662  48.571  18.389  1.00  0.00    +0.025 C 
ATOM     34  C   UNL     1      44.823  47.666  16.936  1.00  0.00    +0.025 C 
ENDBRANCH  30  32
ENDBRANCH  27  30
ENDBRANCH  26  27
ENDBRANCH   2  21
TORSDOF 8
ENDMDL
MODEL 4
REMARK VINA RESULT:    -8.613      5.242      8.004
REMARK INTER + INTRA:         -13.344
REMARK INTER:                 -12.313
REMARK INTRA:                  -1.031
REMARK UNBOUND:                -0.704
REMARK SMILES CC(C)NS(=O)(=O)c1ccc(C(=O)NCc2ccc(C[NH+]3CCCC[C@@H]3C)cc2)cc1
REMARK SMILES IDX 14 1 12 2 13 3 15 5 16 6 19 7 18 8 28 9 17 10 29 11 20 12
REMARK SMILES IDX 21 13 26 14 25 15 24 16 22 17 23 18 27 19 11 21 10 22 30 23
REMARK SMILES IDX 9 24 31 25 8 26 5 27 6 28 7 29 4 30 2 32 1 33 3 34
REMARK H PARENT 14 4 21 20 4 31
ROOT
ATOM      1  N   UNL     1      48.372  57.065  19.414  1.00  0.00    -0.348 N 
ATOM      2  C   UNL     1      49.114  56.078  20.031  1.00  0.00    +0.251 C 
ATOM      3  O   UNL     1      49.692  56.234  21.100  1.00  0.00    -0.269 OA
ATOM      4  H   UNL     1      48.117  56.956  18.445  1.00  0.00    +0.164 HD
ENDROOT
BRANCH   1   5
ATOM      5  C   UNL     1      48.270  58.393  19.980  1.00  0.00    +0.152 C 
BRANCH   5   6
ATOM      6  C   UNL     1      47.441  59.296  19.098  1.00  0.00    -0.029 A 
ATOM      7  C   UNL     1      45.961  61.036  17.436  1.00  0.00    +0.006 A 
ATOM      8  C   UNL     1      46.284  59.738  17.009  1.00  0.00    +0.010 A 
ATOM      9  C   UNL     1      46.373  61.444  18.713  1.00  0.00    +0.010 A 
ATOM     10  C   UNL     1      47.022  58.880  17.830  1.00  0.00    +0.006 A 
ATOM     11  C   UNL     1      47.110  60.586  19.530  1.00  0.00    +0.006 A 
BRANCH   7  12
ATOM     12  C   UNL     1      45.195  61.973  16.540  1.00  0.00    +0.299 C 
BRANCH  12  13
ATOM     13  N   UNL     1      45.368  63.462  16.814  1.00  0.00    -0.329 N 
ATOM     14  C   UNL     1      44.064  64.233  17.014  1.00  0.00    +0.181 C 
ATOM     15  C   UNL     1      44.285  65.742  16.794  1.00  0.00    +0.065 C 
ATOM     16  C   UNL     1      45.682  66.200  17.186  1.00  0.00    +0.012 C 
ATOM     17  C   UNL     1      46.283  64.131  15.818  1.00  0.00    +0.262 C 
ATOM     18  C   UNL     1      46.759  65.461  16.394  1.00  0.00    +0.062 C 
ATOM     19  C   UNL     1      43.538  63.957  18.424  1.00  0.00    +0.075 C 
ATOM     20  H   UNL     1      45.870  63.496  17.710  1.00  0.00    +0.348 HD
ENDBRANCH  12  13
ENDBRANCH   7  12
ENDBRANCH   5   6
ENDBRANCH   1   5
BRANCH   2  21
ATOM     21  C   UNL     1      49.243  54.789  19.293  1.00  0.00    +0.039 A 
ATOM     22  C   UNL     1      48.538  54.641  18.089  1.00  0.00    +0.015 A 
ATOM     23  C   UNL     1      50.045  53.738  19.763  1.00  0.00    +0.015 A 
ATOM     24  C   UNL     1      48.604  53.441  17.375  1.00  0.00    +0.022 A 
ATOM     25  C   UNL     1      50.112  52.536  19.053  1.00  0.00    +0.022 A 
ATOM     26  C   UNL     1      49.391  52.395  17.862  1.00  0.00    +0.082 A 
BRANCH  26  27
ATOM     27  S   UNL     1      49.446  50.845  16.996  1.00  0.00    +0.240 S 
ATOM     28  O   UNL     1      50.826  50.429  16.883  1.00  0.00    -0.207 OA
ATOM     29  O   UNL     1      48.592  50.979  15.836  1.00  0.00    -0.207 OA
BRANCH  27  30
ATOM     30  N   UNL     1      48.658  49.826  18.060  1.00  0.00    -0.209 NA
ATOM     31  H   UNL     1      48.515  50.209  18.993  1.00  0.00    +0.141 HD
BRANCH  30  32
ATOM     32  C   UNL     1      47.763  48.776  17.566  1.00  0.00    +0.063 C 
ATOM     33  C   UNL     1      48.613  47.583  17.143  1.00  0.00    +0.025 C 
ATOM     34  C   UNL     1      46.787  48.386  18.670  1.00  0.00    +0.025 C 
ENDBRANCH  30  32
ENDBRANCH  27  30
ENDBRANCH  26  27
ENDBRANCH   2  21
TORSDOF 8
ENDMDL
MODEL 5
REMARK VINA RESULT:    -8.516      1.890      2.884
REMARK INTER + INTRA:         -13.202
REMARK INTER:                 -12.457
REMARK INTRA:                  -0.745
REMARK UNBOUND:                -0.704
REMARK SMILES CC(C)NS(=O)(=O)c1ccc(C(=O)NCc2ccc(C[NH+]3CCCC[C@@H]3C)cc2)cc1
REMARK SMILES IDX 14 1 12 2 13 3 15 5 16 6 19 7 18 8 28 9 17 10 29 11 20 12
REMARK SMILES IDX 21 13 26 14 25 15 24 16 22 17 23 18 27 19 11 21 10 22 30 23
REMARK SMILES IDX 9 24 31 25 8 26 5 27 6 28 7 29 4 30 2 32 1 33 3 34
REMARK H PARENT 14 4 21 20 4 31
ROOT
ATOM      1  N   UNL     1      48.785  48.818  18.075  1.00  0.00    -0.348 N 
ATOM      2  C   UNL     1      47.461  48.517  18.314  1.00  0.00    +0.251 C 
ATOM      3  O   UNL     1      46.990  48.378  19.437  1.00  0.00    -0.269 OA
ATOM      4  H   UNL     1      49.159  48.694  17.146  1.00  0.00    +0.164 HD
ENDROOT
BRANCH   1   5
ATOM      5  C   UNL     1      49.736  48.945  19.158  1.00  0.00    +0.152 C 
BRANCH   5   6
ATOM      6  C   UNL     1      50.375  50.313  19.162  1.00  0.00    -0.029 A 
ATOM      7  C   UNL     1      51.491  52.908  19.184  1.00  0.00    +0.006 A 
ATOM      8  C   UNL     1      51.733  52.014  20.240  1.00  0.00    +0.010 A 
ATOM      9  C   UNL     1      50.700  52.478  18.109  1.00  0.00    +0.010 A 
ATOM     10  C   UNL     1      51.174  50.732  20.231  1.00  0.00    +0.006 A 
ATOM     11  C   UNL     1      50.144  51.199  18.103  1.00  0.00    +0.006 A 
BRANCH   7  12
ATOM     12  C   UNL     1      52.065  54.300  19.207  1.00  0.00    +0.299 C 
BRANCH  12  13
ATOM     13  N   UNL     1      51.267  55.347  19.976  1.00  0.00    -0.329 N 
ATOM     14  C   UNL     1      51.951  55.874  21.238  1.00  0.00    +0.181 C 
ATOM     15  C   UNL     1      50.921  56.518  22.185  1.00  0.00    +0.065 C 
ATOM     16  C   UNL     1      49.755  57.159  21.446  1.00  0.00    +0.012 C 
ATOM     17  C   UNL     1      49.844  54.916  20.233  1.00  0.00    +0.262 C 
ATOM     18  C   UNL     1      49.008  56.141  20.585  1.00  0.00    +0.062 C 
ATOM     19  C   UNL     1      53.027  56.883  20.831  1.00  0.00    +0.075 C 
ATOM     20  H   UNL     1      51.198  56.138  19.326  1.00  0.00    +0.348 HD
ENDBRANCH  12  13
ENDBRANCH   7  12
ENDBRANCH   5   6
ENDBRANCH   1   5
BRANCH   2  21
ATOM     21  C   UNL     1      46.604  48.294  17.114  1.00  0.00    +0.039 A 
ATOM     22  C   UNL     1      45.301  47.811  17.310  1.00  0.00    +0.015 A 
ATOM     23  C   UNL     1      47.060  48.557  15.814  1.00  0.00    +0.015 A 
ATOM     24  C   UNL     1      44.470  47.559  16.215  1.00  0.00    +0.022 A 
ATOM     25  C   UNL     1      46.232  48.305  14.717  1.00  0.00    +0.022 A 
ATOM     26  C   UNL     1      44.941  47.808  14.924  1.00  0.00    +0.082 A 
BRANCH  26  27
ATOM     27  S   UNL     1      43.917  47.444  13.518  1.00  0.00    +0.240 S 
ATOM     28  O   UNL     1      42.535  47.658  13.888  1.00  0.00    -0.207 OA
ATOM     29  O   UNL     1      44.375  46.184  12.977  1.00  0.00    -0.207 OA
BRANCH  27  30
ATOM     30  N   UNL     1      44.378  48.631  12.438  1.00  0.00    -0.209 NA
ATOM     31  H   UNL     1      45.375  48.656  12.229  1.00  0.00    +0.141 HD
BRANCH  30  32
ATOM     32  C   UNL     1      43.424  49.168  11.463  1.00  0.00    +0.063 C 
ATOM     33  C   UNL     1      44.027  50.425  10.847  1.00  0.00    +0.025 C 
ATOM     34  C   UNL     1      43.148  48.115  10.397  1.00  0.00    +0.025 C 
ENDBRANCH  30  32
ENDBRANCH  27  30
ENDBRANCH  26  27
ENDBRANCH   2  21
TORSDOF 8
ENDMDL
