MODEL 1
REMARK VINA RESULT:    -6.270      0.000      0.000
REMARK INTER + INTRA:          -9.948
REMARK INTER:                  -9.202
REMARK INTRA:                  -0.746
REMARK UNBOUND:                -0.746
REMARK SMILES CC(C)OC(=O)CCNC(=O)NCCc1ccsc1
REMARK SMILES IDX 7 1 5 2 6 3 4 4 2 5 1 6 3 7 8 8 9 9 10 10 11 11 12 12 13 15
REMARK SMILES IDX 14 16 15 17 16 18 19 19 17 20 18 21
REMARK H PARENT 9 13 12 14
ROOT
ATOM      1  C   UNL     1      52.250  54.516  19.741  1.00  0.00    +0.144 C 
ENDROOT
BRANCH   1   2
ATOM      2  C   UNL     1      51.983  54.061  21.151  1.00  0.00    +0.307 C 
ATOM      3  O   UNL     1      51.808  52.902  21.497  1.00  0.00    -0.252 OA
BRANCH   2   4
ATOM      4  O   UNL     1      52.009  55.137  21.988  1.00  0.00    -0.463 OA
BRANCH   4   5
ATOM      5  C   UNL     1      51.770  56.421  21.378  1.00  0.00    +0.170 C 
ATOM      6  C   UNL     1      50.424  56.964  21.845  1.00  0.00    +0.052 C 
ATOM      7  C   UNL     1      52.903  57.343  21.813  1.00  0.00    +0.052 C 
ENDBRANCH   4   5
ENDBRANCH   2   4
ENDBRANCH   1   2
BRANCH   1   8
ATOM      8  C   UNL     1      52.337  53.328  18.797  1.00  0.00    +0.129 C 
BRANCH   8   9
ATOM      9  N   UNL     1      51.021  52.771  18.531  1.00  0.00    -0.338 N 
ATOM     10  C   UNL     1      50.862  51.429  18.297  1.00  0.00    +0.314 C 
ATOM     11  O   UNL     1      51.752  50.600  18.419  1.00  0.00    -0.249 OA
ATOM     12  N   UNL     1      49.566  51.123  17.960  1.00  0.00    -0.338 N 
ATOM     13  H   UNL     1      50.331  53.385  18.126  1.00  0.00    +0.165 HD
ATOM     14  H   UNL     1      49.047  51.859  17.508  1.00  0.00    +0.165 HD
BRANCH  12  15
ATOM     15  C   UNL     1      49.219  49.759  17.597  1.00  0.00    +0.122 C 
BRANCH  15  16
ATOM     16  C   UNL     1      48.448  49.056  18.714  1.00  0.00    +0.057 C 
BRANCH  16  17
ATOM     17  C   UNL     1      47.022  48.775  18.339  1.00  0.00    -0.036 A 
ATOM     18  C   UNL     1      46.312  49.435  17.283  1.00  0.00    +0.015 A 
ATOM     19  C   UNL     1      46.212  47.844  18.966  1.00  0.00    +0.068 A 
ATOM     20  C   UNL     1      45.017  48.985  17.151  1.00  0.00    +0.065 A 
ATOM     21  S   UNL     1      44.641  47.772  18.293  1.00  0.00    -0.152 S 
ENDBRANCH  16  17
ENDBRANCH  15  16
ENDBRANCH  12  15
ENDBRANCH   8   9
ENDBRANCH   1   8
TORSDOF 8
ENDMDL
MODEL 2
REMARK VINA RESULT:    -6.226      1.737      2.624
REMARK INTER + INTRA:          -9.884
REMARK INTER:                  -8.942
REMARK INTRA:                  -0.942
REMARK UNBOUND:                -0.746
REMARK SMILES CC(C)OC(=O)CCNC(=O)NCCc1ccsc1
REMARK SMILES IDX 7 1 5 2 6 3 4 4 2 5 1 6 3 7 8 8 9 9 10 10 11 11 12 12 13 15
REMARK SMILES IDX 14 16 15 17 16 18 19 19 17 20 18 21
REMARK H PARENT 9 13 12 14
ROOT
ATOM      1  C   UNL     1      51.555  55.028  22.284  1.00  0.00    +0.144 C 
ENDROOT
BRANCH   1   2
ATOM      2  C   UNL     1      51.110  55.616  20.972  1.00  0.00    +0.307 C 
ATOM      3  O   UNL     1      51.845  55.883  20.033  1.00  0.00    -0.252 OA
BRANCH   2   4
ATOM      4  O   UNL     1      49.754  55.764  20.977  1.00  0.00    -0.463 OA
BRANCH   4   5
ATOM      5  C   UNL     1      49.256  57.066  20.613  1.00  0.00    +0.170 C 
ATOM      6  C   UNL     1      47.798  56.952  20.183  1.00  0.00    +0.052 C 
ATOM      7  C   UNL     1      49.388  57.958  21.842  1.00  0.00    +0.052 C 
ENDBRANCH   4   5
ENDBRANCH   2   4
ENDBRANCH   1   2
BRANCH   1   8
ATOM      8  C   UNL     1      51.619  53.512  22.203  1.00  0.00    +0.129 C 
BRANCH   8   9
ATOM      9  N   UNL     1      50.765  53.006  21.140  1.00  0.00    -0.338 N 
ATOM     10  C   UNL     1      51.201  52.006  20.308  1.00  0.00    +0.314 C 
ATOM     11  O   UNL     1      52.244  51.387  20.464  1.00  0.00    -0.249 OA
ATOM     12  N   UNL     1      50.296  51.749  19.308  1.00  0.00    -0.338 N 
ATOM     13  H   UNL     1      50.068  53.632  20.768  1.00  0.00    +0.165 HD
ATOM     14  H   UNL     1      49.717  52.527  19.032  1.00  0.00    +0.165 HD
BRANCH  12  15
ATOM     15  C   UNL     1      50.616  50.775  18.278  1.00  0.00    +0.122 C 
BRANCH  15  16
ATOM     16  C   UNL     1      49.612  50.817  17.127  1.00  0.00    +0.057 C 
BRANCH  16  17
ATOM     17  C   UNL     1      48.337  50.094  17.450  1.00  0.00    -0.036 A 
ATOM     18  C   UNL     1      48.218  49.046  18.421  1.00  0.00    +0.015 A 
ATOM     19  C   UNL     1      47.115  50.347  16.850  1.00  0.00    +0.068 A 
ATOM     20  C   UNL     1      46.935  48.556  18.519  1.00  0.00    +0.065 A 
ATOM     21  S   UNL     1      45.864  49.345  17.448  1.00  0.00    -0.152 S 
ENDBRANCH  16  17
ENDBRANCH  15  16
ENDBRANCH  12  15
ENDBRANCH   8   9
ENDBRANCH   1   8
TORSDOF 8
ENDMDL
MODEL 3
REMARK VINA RESULT:    -6.111      1.747      2.026
REMARK INTER + INTRA:          -9.715
REMARK INTER:                  -9.138
REMARK INTRA:                  -0.577
REMARK UNBOUND:                -0.746
REMARK SMILES CC(C)OC(=O)CCNC(=O)NCCc1ccsc1
REMARK SMILES IDX 7 1 5 2 6 3 4 4 2 5 1 6 3 7 8 8 9 9 10 10 11 11 12 12 13 15
REMARK SMILES IDX 14 16 15 17 16 18 19 19 17 20 18 21
REMARK H PARENT 9 13 12 14
ROOT
ATOM      1  C   UNL     1      51.311  52.755  22.035  1.00  0.00    +0.144 C 
ENDROOT
BRANCH   1   2
ATOM      2  C   UNL     1      51.651  53.948  21.183  1.00  0.00    +0.307 C 
ATOM      3  O   UNL     1      52.051  53.901  20.030  1.00  0.00    -0.252 OA
BRANCH   2   4
ATOM      4  O   UNL     1      51.401  55.092  21.883  1.00  0.00    -0.463 OA
BRANCH   4   5
ATOM      5  C   UNL     1      51.165  56.277  21.099  1.00  0.00    +0.170 C 
ATOM      6  C   UNL     1      49.668  56.559  21.038  1.00  0.00    +0.052 C 
ATOM      7  C   UNL     1      51.902  57.422  21.784  1.00  0.00    +0.052 C 
ENDBRANCH   4   5
ENDBRANCH   2   4
ENDBRANCH   1   2
BRANCH   1   8
ATOM      8  C   UNL     1      52.110  51.536  21.602  1.00  0.00    +0.129 C 
BRANCH   8   9
ATOM      9  N   UNL     1      51.238  50.400  21.348  1.00  0.00    -0.338 N 
ATOM     10  C   UNL     1      50.857  50.082  20.069  1.00  0.00    +0.314 C 
ATOM     11  O   UNL     1      51.304  50.617  19.065  1.00  0.00    -0.249 OA
ATOM     12  N   UNL     1      49.950  49.050  20.053  1.00  0.00    -0.338 N 
ATOM     13  H   UNL     1      50.614  50.120  22.089  1.00  0.00    +0.165 HD
ATOM     14  H   UNL     1      49.370  48.965  20.872  1.00  0.00    +0.165 HD
BRANCH  12  15
ATOM     15  C   UNL     1      49.368  48.622  18.792  1.00  0.00    +0.122 C 
BRANCH  15  16
ATOM     16  C   UNL     1      48.068  49.367  18.488  1.00  0.00    +0.057 C 
BRANCH  16  17
ATOM     17  C   UNL     1      46.994  48.459  17.965  1.00  0.00    -0.036 A 
ATOM     18  C   UNL     1      45.922  47.926  18.754  1.00  0.00    +0.015 A 
ATOM     19  C   UNL     1      46.902  48.020  16.656  1.00  0.00    +0.068 A 
ATOM     20  C   UNL     1      45.075  47.121  18.025  1.00  0.00    +0.065 A 
ATOM     21  S   UNL     1      45.558  46.996  16.392  1.00  0.00    -0.152 S 
ENDBRANCH  16  17
ENDBRANCH  15  16
ENDBRANCH  12  15
ENDBRANCH   8   9
ENDBRANCH   1   8
TORSDOF 8
ENDMDL
MODEL 4
REMARK VINA RESULT:    -6.105      1.961      2.078
REMARK INTER + INTRA:          -9.707
REMARK INTER:                  -8.641
REMARK INTRA:                  -1.066
REMARK UNBOUND:                -0.746
REMARK SMILES CC(C)OC(=O)CCNC(=O)NCCc1ccsc1
REMARK SMILES IDX 7 1 5 2 6 3 4 4 2 5 1 6 3 7 8 8 9 9 10 10 11 11 12 12 13 15
REMARK SMILES IDX 14 16 15 17 16 18 19 19 17 20 18 21
REMARK H PARENT 9 13 12 14
ROOT
ATOM      1  C   UNL     1      49.533  55.859  18.438  1.00  0.00    +0.144 C 
ENDROOT
BRANCH   1   2
ATOM      2  C   UNL     1      50.721  55.431  19.258  1.00  0.00    +0.307 C 
ATOM      3  O   UNL     1      51.825  55.159  18.812  1.00  0.00    -0.252 OA
BRANCH   2   4
ATOM      4  O   UNL     1      50.386  55.437  20.580  1.00  0.00    -0.463 OA
BRANCH   4   5
ATOM      5  C   UNL     1      50.889  56.541  21.358  1.00  0.00    +0.170 C 
ATOM      6  C   UNL     1      49.729  57.424  21.801  1.00  0.00    +0.052 C 
ATOM      7  C   UNL     1      51.608  55.948  22.565  1.00  0.00    +0.052 C 
ENDBRANCH   4   5
ENDBRANCH   2   4
ENDBRANCH   1   2
BRANCH   1   8
ATOM      8  C   UNL     1      48.660  54.665  18.089  1.00  0.00    +0.129 C 
BRANCH   8   9
ATOM      9  N   UNL     1      49.285  53.418  18.502  1.00  0.00    -0.338 N 
ATOM     10  C   UNL     1      49.097  52.267  17.779  1.00  0.00    +0.314 C 
ATOM     11  O   UNL     1      48.524  52.218  16.701  1.00  0.00    -0.249 OA
ATOM     12  N   UNL     1      49.678  51.184  18.392  1.00  0.00    -0.338 N 
ATOM     13  H   UNL     1      49.497  53.308  19.481  1.00  0.00    +0.165 HD
ATOM     14  H   UNL     1      49.752  51.237  19.395  1.00  0.00    +0.165 HD
BRANCH  12  15
ATOM     15  C   UNL     1      49.518  49.859  17.816  1.00  0.00    +0.122 C 
BRANCH  15  16
ATOM     16  C   UNL     1      48.665  48.955  18.707  1.00  0.00    +0.057 C 
BRANCH  16  17
ATOM     17  C   UNL     1      47.293  48.724  18.146  1.00  0.00    -0.036 A 
ATOM     18  C   UNL     1      46.865  49.141  16.843  1.00  0.00    +0.015 A 
ATOM     19  C   UNL     1      46.267  48.078  18.814  1.00  0.00    +0.068 A 
ATOM     20  C   UNL     1      45.557  48.801  16.579  1.00  0.00    +0.065 A 
ATOM     21  S   UNL     1      44.831  47.981  17.890  1.00  0.00    -0.152 S 
ENDBRANCH  16  17
ENDBRANCH  15  16
ENDBRANCH  12  15
ENDBRANCH   8   9
ENDBRANCH   1   8
TORSDOF 8
ENDMDL
MODEL 5
REMARK VINA RESULT:    -6.100      2.411      3.417
REMARK INTER + INTRA:          -9.699
REMARK INTER:                  -8.823
REMARK INTRA:                  -0.876
REMARK UNBOUND:                -0.746
REMARK SMILES CC(C)OC(=O)CCNC(=O)NCCc1ccsc1
REMARK SMILES IDX 7 1 5 2 6 3 4 4 2 5 1 6 3 7 8 8 9 9 10 10 11 11 12 12 13 15
REMARK SMILES IDX 14 16 15 17 16 18 19 19 17 20 18 21
REMARK H PARENT 9 13 12 14
ROOT
ATOM      1  C   UNL     1      52.420  57.026  20.501  1.00  0.00    +0.144 C 
ENDROOT
BRANCH   1   2
ATOM      2  C   UNL     1      51.322  56.925  21.527  1.00  0.00    +0.307 C 
ATOM      3  O   UNL     1      51.384  56.286  22.566  1.00  0.00    -0.252 OA
BRANCH   2   4
ATOM      4  O   UNL     1      50.265  57.692  21.136  1.00  0.00    -0.463 OA
BRANCH   4   5
ATOM      5  C   UNL     1      48.960  57.099  21.285  1.00  0.00    +0.170 C 
ATOM      6  C   UNL     1      47.888  58.147  21.007  1.00  0.00    +0.052 C 
ATOM      7  C   UNL     1      48.870  55.955  20.282  1.00  0.00    +0.052 C 
ENDBRANCH   4   5
ENDBRANCH   2   4
ENDBRANCH   1   2
BRANCH   1   8
ATOM      8  C   UNL     1      52.360  55.859  19.529  1.00  0.00    +0.129 C 
BRANCH   8   9
ATOM      9  N   UNL     1      52.349  54.588  20.235  1.00  0.00    -0.338 N 
ATOM     10  C   UNL     1      52.488  53.406  19.552  1.00  0.00    +0.314 C 
ATOM     11  O   UNL     1      52.757  53.327  18.362  1.00  0.00    -0.249 OA
ATOM     12  N   UNL     1      52.341  52.321  20.381  1.00  0.00    -0.338 N 
ATOM     13  H   UNL     1      51.850  54.548  21.110  1.00  0.00    +0.165 HD
ATOM     14  H   UNL     1      51.752  52.463  21.186  1.00  0.00    +0.165 HD
BRANCH  12  15
ATOM     15  C   UNL     1      52.377  50.979  19.825  1.00  0.00    +0.122 C 
BRANCH  15  16
ATOM     16  C   UNL     1      51.174  50.149  20.274  1.00  0.00    +0.057 C 
BRANCH  16  17
ATOM     17  C   UNL     1      50.172  49.948  19.174  1.00  0.00    -0.036 A 
ATOM     18  C   UNL     1      50.023  50.813  18.040  1.00  0.00    +0.015 A 
ATOM     19  C   UNL     1      49.266  48.904  19.116  1.00  0.00    +0.068 A 
ATOM     20  C   UNL     1      49.029  50.397  17.182  1.00  0.00    +0.065 A 
ATOM     21  S   UNL     1      48.267  48.970  17.729  1.00  0.00    -0.152 S 
ENDBRANCH  16  17
ENDBRANCH  15  16
ENDBRANCH  12  15
ENDBRANCH   8   9
ENDBRANCH   1   8
TORSDOF 8
ENDMDL
