MODEL 1
REMARK VINA RESULT:    -8.778      0.000      0.000
REMARK INTER + INTRA:         -16.473
REMARK INTER:                 -13.653
REMARK INTRA:                  -2.819
REMARK UNBOUND:                -2.819
REMARK SMILES CC(C)(C)c1ccc(C(=O)NCCC(=O)NCCNC(=O)c2ccc(O)cc2)cc1
REMARK SMILES IDX 14 1 15 2 16 3 13 5 12 6 11 7 9 8 10 9 8 11 5 12 6 13 30 14
REMARK SMILES IDX 7 15 29 16 2 17 1 18 3 19 4 20 17 21 18 22 19 23 20 24 21 25
REMARK SMILES IDX 22 27 23 28 28 29 24 30 27 31 25 32 26 33
REMARK H PARENT 16 4 11 10 19 26 26 34
ROOT
ATOM      1  C   UNL     1      48.273  57.155  19.786  1.00  0.00    +0.221 C 
ATOM      2  O   UNL     1      47.901  56.105  20.297  1.00  0.00    -0.275 OA
ATOM      3  N   UNL     1      49.086  58.061  20.432  1.00  0.00    -0.354 N 
ATOM      4  H   UNL     1      49.405  58.886  19.939  1.00  0.00    +0.163 HD
ENDROOT
BRANCH   1   5
ATOM      5  C   UNL     1      47.847  57.616  18.410  1.00  0.00    +0.121 C 
BRANCH   5   6
ATOM      6  C   UNL     1      48.586  56.850  17.321  1.00  0.00    +0.126 C 
BRANCH   6   7
ATOM      7  N   UNL     1      48.649  55.424  17.597  1.00  0.00    -0.352 N 
ATOM      8  C   UNL     1      48.133  54.495  16.717  1.00  0.00    +0.251 C 
ATOM      9  O   UNL     1      47.580  54.799  15.666  1.00  0.00    -0.269 OA
ATOM     10  H   UNL     1      48.930  55.133  18.523  1.00  0.00    +0.163 HD
BRANCH   8  11
ATOM     11  C   UNL     1      48.235  53.068  17.126  1.00  0.00    +0.039 A 
ATOM     12  C   UNL     1      48.336  50.329  17.870  1.00  0.00    -0.043 A 
ATOM     13  C   UNL     1      49.445  51.181  18.044  1.00  0.00    +0.005 A 
ATOM     14  C   UNL     1      47.180  50.887  17.298  1.00  0.00    +0.005 A 
ATOM     15  C   UNL     1      49.401  52.531  17.676  1.00  0.00    +0.014 A 
ATOM     16  C   UNL     1      47.131  52.236  16.926  1.00  0.00    +0.014 A 
BRANCH  12  17
ATOM     17  C   UNL     1      48.424  48.850  18.287  1.00  0.00    -0.013 C 
ATOM     18  C   UNL     1      48.752  47.890  17.122  1.00  0.00    +0.016 C 
ATOM     19  C   UNL     1      49.532  48.678  19.349  1.00  0.00    +0.016 C 
ATOM     20  C   UNL     1      47.074  48.396  18.884  1.00  0.00    +0.016 C 
ENDBRANCH  12  17
ENDBRANCH   8  11
ENDBRANCH   6   7
ENDBRANCH   5   6
ENDBRANCH   1   5
BRANCH   3  21
ATOM     21  C   UNL     1      49.642  57.791  21.744  1.00  0.00    +0.137 C 
BRANCH  21  22
ATOM     22  C   UNL     1      51.143  57.480  21.703  1.00  0.00    +0.137 C 
BRANCH  22  23
ATOM     23  N   UNL     1      51.419  56.055  21.647  1.00  0.00    -0.350 N 
ATOM     24  C   UNL     1      51.516  55.391  20.444  1.00  0.00    +0.251 C 
ATOM     25  O   UNL     1      51.356  55.942  19.360  1.00  0.00    -0.269 OA
ATOM     26  H   UNL     1      51.709  55.601  22.502  1.00  0.00    +0.163 HD
BRANCH  24  27
ATOM     27  C   UNL     1      51.856  53.943  20.505  1.00  0.00    +0.040 A 
ATOM     28  C   UNL     1      52.489  53.362  19.396  1.00  0.00    +0.017 A 
ATOM     29  C   UNL     1      51.541  53.149  21.616  1.00  0.00    +0.017 A 
ATOM     30  C   UNL     1      52.825  52.006  19.404  1.00  0.00    +0.047 A 
ATOM     31  C   UNL     1      51.879  51.793  21.621  1.00  0.00    +0.047 A 
ATOM     32  C   UNL     1      52.519  51.234  20.520  1.00  0.00    +0.115 A 
BRANCH  32  33
ATOM     33  O   UNL     1      52.827  49.908  20.572  1.00  0.00    -0.508 OA
ATOM     34  H   UNL     1      53.027  49.598  19.674  1.00  0.00    +0.293 HD
ENDBRANCH  32  33
ENDBRANCH  24  27
ENDBRANCH  22  23
ENDBRANCH  21  22
ENDBRANCH   3  21
TORSDOF 10
ENDMDL
MODEL 2
REMARK VINA RESULT:    -8.303      2.460      6.323
REMARK INTER + INTRA:         -15.734
REMARK INTER:                 -12.886
REMARK INTRA:                  -2.847
REMARK UNBOUND:                -2.819
REMARK SMILES CC(C)(C)c1ccc(C(=O)NCCC(=O)NCCNC(=O)c2ccc(O)cc2)cc1
REMARK SMILES IDX 14 1 15 2 16 3 13 5 12 6 11 7 9 8 10 9 8 11 5 12 6 13 30 14
REMARK SMILES IDX 7 15 29 16 2 17 1 18 3 19 4 20 17 21 18 22 19 23 20 24 21 25
REMARK SMILES IDX 22 27 23 28 28 29 24 30 27 31 25 32 26 33
REMARK H PARENT 16 4 11 10 19 26 26 34
ROOT
ATOM      1  C   UNL     1      47.488  49.313  17.971  1.00  0.00    +0.221 C 
ATOM      2  O   UNL     1      46.687  48.807  18.750  1.00  0.00    -0.275 OA
ATOM      3  N   UNL     1      48.833  49.429  18.244  1.00  0.00    -0.354 N 
ATOM      4  H   UNL     1      49.455  49.807  17.539  1.00  0.00    +0.163 HD
ENDROOT
BRANCH   1   5
ATOM      5  C   UNL     1      47.097  49.920  16.643  1.00  0.00    +0.121 C 
BRANCH   5   6
ATOM      6  C   UNL     1      48.145  50.919  16.167  1.00  0.00    +0.126 C 
BRANCH   6   7
ATOM      7  N   UNL     1      48.007  52.213  16.814  1.00  0.00    -0.352 N 
ATOM      8  C   UNL     1      49.048  52.784  17.516  1.00  0.00    +0.251 C 
ATOM      9  O   UNL     1      50.140  52.244  17.657  1.00  0.00    -0.269 OA
ATOM     10  H   UNL     1      47.081  52.613  16.879  1.00  0.00    +0.163 HD
BRANCH   8  11
ATOM     11  C   UNL     1      48.773  54.099  18.156  1.00  0.00    +0.039 A 
ATOM     12  C   UNL     1      48.260  56.565  19.466  1.00  0.00    -0.043 A 
ATOM     13  C   UNL     1      48.321  56.477  18.061  1.00  0.00    +0.005 A 
ATOM     14  C   UNL     1      48.480  55.385  20.195  1.00  0.00    +0.005 A 
ATOM     15  C   UNL     1      48.576  55.263  17.410  1.00  0.00    +0.014 A 
ATOM     16  C   UNL     1      48.738  54.169  19.550  1.00  0.00    +0.014 A 
BRANCH  12  17
ATOM     17  C   UNL     1      47.978  57.918  20.144  1.00  0.00    -0.013 C 
ATOM     18  C   UNL     1      46.517  58.086  20.620  1.00  0.00    +0.016 C 
ATOM     19  C   UNL     1      48.883  58.073  21.385  1.00  0.00    +0.016 C 
ATOM     20  C   UNL     1      48.269  59.068  19.155  1.00  0.00    +0.016 C 
ENDBRANCH  12  17
ENDBRANCH   8  11
ENDBRANCH   6   7
ENDBRANCH   5   6
ENDBRANCH   1   5
BRANCH   3  21
ATOM     21  C   UNL     1      49.422  48.872  19.447  1.00  0.00    +0.137 C 
BRANCH  21  22
ATOM     22  C   UNL     1      50.849  49.373  19.700  1.00  0.00    +0.137 C 
BRANCH  22  23
ATOM     23  N   UNL     1      50.897  50.786  20.033  1.00  0.00    -0.350 N 
ATOM     24  C   UNL     1      52.055  51.375  20.489  1.00  0.00    +0.251 C 
ATOM     25  O   UNL     1      53.099  50.756  20.663  1.00  0.00    -0.269 OA
ATOM     26  H   UNL     1      50.111  51.358  19.756  1.00  0.00    +0.163 HD
BRANCH  24  27
ATOM     27  C   UNL     1      52.003  52.841  20.746  1.00  0.00    +0.040 A 
ATOM     28  C   UNL     1      52.386  53.711  19.714  1.00  0.00    +0.017 A 
ATOM     29  C   UNL     1      51.612  53.368  21.985  1.00  0.00    +0.017 A 
ATOM     30  C   UNL     1      52.357  55.094  19.908  1.00  0.00    +0.047 A 
ATOM     31  C   UNL     1      51.584  54.752  22.176  1.00  0.00    +0.047 A 
ATOM     32  C   UNL     1      51.953  55.602  21.139  1.00  0.00    +0.115 A 
BRANCH  32  33
ATOM     33  O   UNL     1      51.911  56.943  21.374  1.00  0.00    -0.508 OA
ATOM     34  H   UNL     1      52.403  57.399  20.672  1.00  0.00    +0.293 HD
ENDBRANCH  32  33
ENDBRANCH  24  27
ENDBRANCH  22  23
ENDBRANCH  21  22
ENDBRANCH   3  21
TORSDOF 10
ENDMDL
MODEL 3
REMARK VINA RESULT:    -8.009      3.068      7.840
REMARK INTER + INTRA:         -15.276
REMARK INTER:                 -14.064
REMARK INTRA:                  -1.211
REMARK UNBOUND:                -2.819
REMARK SMILES CC(C)(C)c1ccc(C(=O)NCCC(=O)NCCNC(=O)c2ccc(O)cc2)cc1
REMARK SMILES IDX 14 1 15 2 16 3 13 5 12 6 11 7 9 8 10 9 8 11 5 12 6 13 30 14
REMARK SMILES IDX 7 15 29 16 2 17 1 18 3 19 4 20 17 21 18 22 19 23 20 24 21 25
REMARK SMILES IDX 22 27 23 28 28 29 24 30 27 31 25 32 26 33
REMARK H PARENT 16 4 11 10 19 26 26 34
ROOT
ATOM      1  C   UNL     1      51.661  53.421  21.025  1.00  0.00    +0.221 C 
ATOM      2  O   UNL     1      51.846  52.876  22.108  1.00  0.00    -0.275 OA
ATOM      3  N   UNL     1      51.884  52.795  19.819  1.00  0.00    -0.354 N 
ATOM      4  H   UNL     1      51.662  53.278  18.956  1.00  0.00    +0.163 HD
ENDROOT
BRANCH   1   5
ATOM      5  C   UNL     1      51.220  54.859  20.875  1.00  0.00    +0.121 C 
BRANCH   5   6
ATOM      6  C   UNL     1      50.677  55.123  19.476  1.00  0.00    +0.126 C 
BRANCH   6   7
ATOM      7  N   UNL     1      49.858  56.323  19.420  1.00  0.00    -0.352 N 
ATOM      8  C   UNL     1      48.804  56.437  18.538  1.00  0.00    +0.251 C 
ATOM      9  O   UNL     1      48.497  55.558  17.740  1.00  0.00    -0.269 OA
ATOM     10  H   UNL     1      50.178  57.137  19.925  1.00  0.00    +0.163 HD
BRANCH   8  11
ATOM     11  C   UNL     1      48.061  57.726  18.558  1.00  0.00    +0.039 A 
ATOM     12  C   UNL     1      46.664  60.195  18.695  1.00  0.00    -0.043 A 
ATOM     13  C   UNL     1      46.827  59.507  17.475  1.00  0.00    +0.005 A 
ATOM     14  C   UNL     1      47.236  59.616  19.841  1.00  0.00    +0.005 A 
ATOM     15  C   UNL     1      47.517  58.292  17.403  1.00  0.00    +0.014 A 
ATOM     16  C   UNL     1      47.929  58.401  19.773  1.00  0.00    +0.014 A 
BRANCH  12  17
ATOM     17  C   UNL     1      45.899  61.530  18.734  1.00  0.00    -0.013 C 
ATOM     18  C   UNL     1      46.438  62.529  19.782  1.00  0.00    +0.016 C 
ATOM     19  C   UNL     1      45.990  62.218  17.355  1.00  0.00    +0.016 C 
ATOM     20  C   UNL     1      44.415  61.270  19.074  1.00  0.00    +0.016 C 
ENDBRANCH  12  17
ENDBRANCH   8  11
ENDBRANCH   6   7
ENDBRANCH   5   6
ENDBRANCH   1   5
BRANCH   3  21
ATOM     21  C   UNL     1      52.270  51.398  19.740  1.00  0.00    +0.137 C 
BRANCH  21  22
ATOM     22  C   UNL     1      51.936  50.763  18.385  1.00  0.00    +0.137 C 
BRANCH  22  23
ATOM     23  N   UNL     1      50.635  50.117  18.375  1.00  0.00    -0.350 N 
ATOM     24  C   UNL     1      49.489  50.819  18.070  1.00  0.00    +0.251 C 
ATOM     25  O   UNL     1      49.486  52.019  17.814  1.00  0.00    -0.269 OA
ATOM     26  H   UNL     1      50.613  49.108  18.425  1.00  0.00    +0.163 HD
BRANCH  24  27
ATOM     27  C   UNL     1      48.219  50.043  18.036  1.00  0.00    +0.040 A 
ATOM     28  C   UNL     1      47.169  50.522  17.237  1.00  0.00    +0.017 A 
ATOM     29  C   UNL     1      48.036  48.877  18.792  1.00  0.00    +0.017 A 
ATOM     30  C   UNL     1      45.957  49.831  17.176  1.00  0.00    +0.047 A 
ATOM     31  C   UNL     1      46.822  48.188  18.728  1.00  0.00    +0.047 A 
ATOM     32  C   UNL     1      45.796  48.667  17.920  1.00  0.00    +0.115 A 
BRANCH  32  33
ATOM     33  O   UNL     1      44.631  47.961  17.892  1.00  0.00    -0.508 OA
ATOM     34  H   UNL     1      44.304  47.935  16.978  1.00  0.00    +0.293 HD
ENDBRANCH  32  33
ENDBRANCH  24  27
ENDBRANCH  22  23
ENDBRANCH  21  22
ENDBRANCH   3  21
TORSDOF 10
ENDMDL
MODEL 4
REMARK VINA RESULT:    -7.827      3.148      6.825
REMARK INTER + INTRA:         -14.993
REMARK INTER:                 -14.204
REMARK INTRA:                  -0.789
REMARK UNBOUND:                -2.819
REMARK SMILES CC(C)(C)c1ccc(C(=O)NCCC(=O)NCCNC(=O)c2ccc(O)cc2)cc1
REMARK SMILES IDX 14 1 15 2 16 3 13 5 12 6 11 7 9 8 10 9 8 11 5 12 6 13 30 14
REMARK SMILES IDX 7 15 29 16 2 17 1 18 3 19 4 20 17 21 18 22 19 23 20 24 21 25
REMARK SMILES IDX 22 27 23 28 28 29 24 30 27 31 25 32 26 33
REMARK H PARENT 16 4 11 10 19 26 26 34
ROOT
ATOM      1  C   UNL     1      51.249  55.775  21.768  1.00  0.00    +0.221 C 
ATOM      2  O   UNL     1      51.911  56.721  22.182  1.00  0.00    -0.275 OA
ATOM      3  N   UNL     1      50.056  55.928  21.096  1.00  0.00    -0.354 N 
ATOM      4  H   UNL     1      49.581  55.112  20.730  1.00  0.00    +0.163 HD
ENDROOT
BRANCH   1   5
ATOM      5  C   UNL     1      51.627  54.328  21.986  1.00  0.00    +0.121 C 
BRANCH   5   6
ATOM      6  C   UNL     1      51.973  53.647  20.668  1.00  0.00    +0.126 C 
BRANCH   6   7
ATOM      7  N   UNL     1      50.952  52.701  20.251  1.00  0.00    -0.352 N 
ATOM      8  C   UNL     1      51.028  52.043  19.041  1.00  0.00    +0.251 C 
ATOM      9  O   UNL     1      51.937  52.217  18.237  1.00  0.00    -0.269 OA
ATOM     10  H   UNL     1      50.099  52.658  20.791  1.00  0.00    +0.163 HD
BRANCH   8  11
ATOM     11  C   UNL     1      49.906  51.121  18.717  1.00  0.00    +0.039 A 
ATOM     12  C   UNL     1      47.733  49.427  18.030  1.00  0.00    -0.043 A 
ATOM     13  C   UNL     1      48.707  49.031  18.968  1.00  0.00    +0.005 A 
ATOM     14  C   UNL     1      47.889  50.690  17.435  1.00  0.00    +0.005 A 
ATOM     15  C   UNL     1      49.782  49.861  19.307  1.00  0.00    +0.014 A 
ATOM     16  C   UNL     1      48.963  51.524  17.770  1.00  0.00    +0.014 A 
BRANCH  12  17
ATOM     17  C   UNL     1      46.566  48.485  17.683  1.00  0.00    -0.013 C 
ATOM     18  C   UNL     1      45.312  49.213  17.147  1.00  0.00    +0.016 C 
ATOM     19  C   UNL     1      47.015  47.485  16.594  1.00  0.00    +0.016 C 
ATOM     20  C   UNL     1      46.135  47.703  18.943  1.00  0.00    +0.016 C 
ENDBRANCH  12  17
ENDBRANCH   8  11
ENDBRANCH   6   7
ENDBRANCH   5   6
ENDBRANCH   1   5
BRANCH   3  21
ATOM     21  C   UNL     1      49.536  57.237  20.746  1.00  0.00    +0.137 C 
BRANCH  21  22
ATOM     22  C   UNL     1      48.150  57.172  20.094  1.00  0.00    +0.137 C 
BRANCH  22  23
ATOM     23  N   UNL     1      47.448  58.442  20.140  1.00  0.00    -0.350 N 
ATOM     24  C   UNL     1      47.277  59.208  19.008  1.00  0.00    +0.251 C 
ATOM     25  O   UNL     1      47.716  58.886  17.909  1.00  0.00    -0.269 OA
ATOM     26  H   UNL     1      46.939  58.665  20.985  1.00  0.00    +0.163 HD
BRANCH  24  27
ATOM     27  C   UNL     1      46.493  60.464  19.163  1.00  0.00    +0.040 A 
ATOM     28  C   UNL     1      47.152  61.601  19.656  1.00  0.00    +0.017 A 
ATOM     29  C   UNL     1      45.126  60.534  18.860  1.00  0.00    +0.017 A 
ATOM     30  C   UNL     1      46.459  62.802  19.824  1.00  0.00    +0.047 A 
ATOM     31  C   UNL     1      44.436  61.738  19.028  1.00  0.00    +0.047 A 
ATOM     32  C   UNL     1      45.106  62.860  19.505  1.00  0.00    +0.115 A 
BRANCH  32  33
ATOM     33  O   UNL     1      44.390  64.009  19.653  1.00  0.00    -0.508 OA
ATOM     34  H   UNL     1      43.551  63.919  19.171  1.00  0.00    +0.293 HD
ENDBRANCH  32  33
ENDBRANCH  24  27
ENDBRANCH  22  23
ENDBRANCH  21  22
ENDBRANCH   3  21
TORSDOF 10
ENDMDL
MODEL 5
REMARK VINA RESULT:    -7.826      3.507      7.002
REMARK INTER + INTRA:         -14.991
REMARK INTER:                 -13.701
REMARK INTRA:                  -1.291
REMARK UNBOUND:                -2.819
REMARK SMILES CC(C)(C)c1ccc(C(=O)NCCC(=O)NCCNC(=O)c2ccc(O)cc2)cc1
REMARK SMILES IDX 14 1 15 2 16 3 13 5 12 6 11 7 9 8 10 9 8 11 5 12 6 13 30 14
REMARK SMILES IDX 7 15 29 16 2 17 1 18 3 19 4 20 17 21 18 22 19 23 20 24 21 25
REMARK SMILES IDX 22 27 23 28 28 29 24 30 27 31 25 32 26 33
REMARK H PARENT 16 4 11 10 19 26 26 34
ROOT
ATOM      1  C   UNL     1      50.850  56.564  21.138  1.00  0.00    +0.221 C 
ATOM      2  O   UNL     1      51.439  57.599  21.431  1.00  0.00    -0.275 OA
ATOM      3  N   UNL     1      49.481  56.488  21.011  1.00  0.00    -0.354 N 
ATOM      4  H   UNL     1      49.055  55.618  20.714  1.00  0.00    +0.163 HD
ENDROOT
BRANCH   1   5
ATOM      5  C   UNL     1      51.541  55.235  20.934  1.00  0.00    +0.121 C 
BRANCH   5   6
ATOM      6  C   UNL     1      51.742  54.943  19.452  1.00  0.00    +0.126 C 
BRANCH   6   7
ATOM      7  N   UNL     1      50.947  53.813  19.000  1.00  0.00    -0.352 N 
ATOM      8  C   UNL     1      49.696  53.987  18.446  1.00  0.00    +0.251 C 
ATOM      9  O   UNL     1      49.166  55.084  18.312  1.00  0.00    -0.269 OA
ATOM     10  H   UNL     1      51.259  52.885  19.250  1.00  0.00    +0.163 HD
BRANCH   8  11
ATOM     11  C   UNL     1      48.972  52.749  18.048  1.00  0.00    +0.039 A 
ATOM     12  C   UNL     1      47.657  50.334  17.338  1.00  0.00    -0.043 A 
ATOM     13  C   UNL     1      47.128  51.591  16.984  1.00  0.00    +0.005 A 
ATOM     14  C   UNL     1      48.855  50.323  18.072  1.00  0.00    +0.005 A 
ATOM     15  C   UNL     1      47.771  52.785  17.334  1.00  0.00    +0.014 A 
ATOM     16  C   UNL     1      49.501  51.514  18.427  1.00  0.00    +0.014 A 
BRANCH  12  17
ATOM     17  C   UNL     1      46.920  49.044  16.935  1.00  0.00    -0.013 C 
ATOM     18  C   UNL     1      46.997  48.725  15.425  1.00  0.00    +0.016 C 
ATOM     19  C   UNL     1      47.531  47.843  17.689  1.00  0.00    +0.016 C 
ATOM     20  C   UNL     1      45.424  49.163  17.299  1.00  0.00    +0.016 C 
ENDBRANCH  12  17
ENDBRANCH   8  11
ENDBRANCH   6   7
ENDBRANCH   5   6
ENDBRANCH   1   5
BRANCH   3  21
ATOM     21  C   UNL     1      48.633  57.660  21.125  1.00  0.00    +0.137 C 
BRANCH  21  22
ATOM     22  C   UNL     1      48.216  58.228  19.763  1.00  0.00    +0.137 C 
BRANCH  22  23
ATOM     23  N   UNL     1      47.161  59.221  19.869  1.00  0.00    -0.350 N 
ATOM     24  C   UNL     1      47.139  60.332  19.055  1.00  0.00    +0.251 C 
ATOM     25  O   UNL     1      48.003  60.566  18.217  1.00  0.00    -0.269 OA
ATOM     26  H   UNL     1      46.354  58.988  20.432  1.00  0.00    +0.163 HD
BRANCH  24  27
ATOM     27  C   UNL     1      45.980  61.254  19.214  1.00  0.00    +0.040 A 
ATOM     28  C   UNL     1      44.689  60.734  19.037  1.00  0.00    +0.017 A 
ATOM     29  C   UNL     1      46.144  62.615  19.505  1.00  0.00    +0.017 A 
ATOM     30  C   UNL     1      43.570  61.560  19.172  1.00  0.00    +0.047 A 
ATOM     31  C   UNL     1      45.023  63.439  19.639  1.00  0.00    +0.047 A 
ATOM     32  C   UNL     1      43.748  62.906  19.475  1.00  0.00    +0.115 A 
BRANCH  32  33
ATOM     33  O   UNL     1      42.688  63.748  19.615  1.00  0.00    -0.508 OA
ATOM     34  H   UNL     1      42.666  64.075  20.529  1.00  0.00    +0.293 HD
ENDBRANCH  32  33
ENDBRANCH  24  27
ENDBRANCH  22  23
ENDBRANCH  21  22
ENDBRANCH   3  21
TORSDOF 10
ENDMDL
