MODEL 1
REMARK VINA RESULT:    -8.274      0.000      0.000
REMARK INTER + INTRA:         -12.446
REMARK INTER:                 -11.660
REMARK INTRA:                  -0.786
REMARK UNBOUND:                -0.786
REMARK SMILES CC(C)CC[NH+]1CCN([C@@H](C)C(=O)NC(=O)NC[C@H]2CCCO2)CC1
REMARK SMILES IDX 9 1 8 2 7 3 6 4 25 5 24 6 10 8 11 9 12 10 13 11 14 12 15 13
REMARK SMILES IDX 16 14 17 15 18 18 19 19 20 20 23 21 21 22 22 23 5 24 4 25
REMARK SMILES IDX 2 26 1 27 3 28
REMARK H PARENT 6 7 14 16 17 17
ROOT
ATOM      1  N   UNL     1      51.596  54.442  20.767  1.00  0.00    -0.281 NA
ATOM      2  C   UNL     1      52.422  55.350  19.941  1.00  0.00    +0.147 C 
ATOM      3  C   UNL     1      52.782  56.691  20.622  1.00  0.00    +0.278 C 
ATOM      4  N   UNL     1      51.623  57.199  21.465  1.00  0.00    -0.333 N 
ATOM      5  C   UNL     1      51.274  56.192  22.562  1.00  0.00    +0.278 C 
ATOM      6  C   UNL     1      51.697  54.746  22.205  1.00  0.00    +0.147 C 
ATOM      7  H   UNL     1      51.963  58.048  21.932  1.00  0.00    +0.348 HD
ENDROOT
BRANCH   1   8
ATOM      8  C   UNL     1      51.795  52.993  20.467  1.00  0.00    +0.144 C 
ATOM      9  C   UNL     1      51.991  52.180  21.749  1.00  0.00    +0.035 C 
BRANCH   8  10
ATOM     10  C   UNL     1      50.664  52.378  19.598  1.00  0.00    +0.245 C 
ATOM     11  O   UNL     1      50.275  51.216  19.726  1.00  0.00    -0.273 OA
ATOM     12  N   UNL     1      50.132  53.268  18.678  1.00  0.00    -0.277 N 
ATOM     13  C   UNL     1      49.096  53.081  17.803  1.00  0.00    +0.321 C 
ATOM     14  O   UNL     1      48.625  54.048  17.213  1.00  0.00    -0.248 OA
ATOM     15  N   UNL     1      48.661  51.802  17.644  1.00  0.00    -0.335 N 
ATOM     16  H   UNL     1      50.409  54.240  18.712  1.00  0.00    +0.174 HD
ATOM     17  H   UNL     1      48.891  51.154  18.391  1.00  0.00    +0.165 HD
BRANCH  15  18
ATOM     18  C   UNL     1      47.470  51.498  16.869  1.00  0.00    +0.149 C 
BRANCH  18  19
ATOM     19  C   UNL     1      47.122  50.008  16.917  1.00  0.00    +0.137 C 
ATOM     20  C   UNL     1      47.670  49.310  18.152  1.00  0.00    +0.036 C 
ATOM     21  O   UNL     1      45.686  49.833  16.967  1.00  0.00    -0.376 OA
ATOM     22  C   UNL     1      46.715  48.150  18.288  1.00  0.00    +0.031 C 
ATOM     23  C   UNL     1      45.396  48.784  17.904  1.00  0.00    +0.160 C 
ENDBRANCH  18  19
ENDBRANCH  15  18
ENDBRANCH   8  10
ENDBRANCH   1   8
BRANCH   4  24
ATOM     24  C   UNL     1      50.433  57.604  20.615  1.00  0.00    +0.262 C 
BRANCH  24  25
ATOM     25  C   UNL     1      49.211  57.841  21.502  1.00  0.00    +0.064 C 
BRANCH  25  26
ATOM     26  C   UNL     1      47.879  57.596  20.770  1.00  0.00    -0.012 C 
ATOM     27  C   UNL     1      47.484  58.756  19.860  1.00  0.00    +0.007 C 
ATOM     28  C   UNL     1      47.963  56.305  19.955  1.00  0.00    +0.007 C 
ENDBRANCH  25  26
ENDBRANCH  24  25
ENDBRANCH   4  24
TORSDOF 7
ENDMDL
MODEL 2
REMARK VINA RESULT:    -8.073      2.286      2.737
REMARK INTER + INTRA:         -12.163
REMARK INTER:                 -11.532
REMARK INTRA:                  -0.631
REMARK UNBOUND:                -0.786
REMARK SMILES CC(C)CC[NH+]1CCN([C@@H](C)C(=O)NC(=O)NC[C@H]2CCCO2)CC1
REMARK SMILES IDX 9 1 8 2 7 3 6 4 25 5 24 6 10 8 11 9 12 10 13 11 14 12 15 13
REMARK SMILES IDX 16 14 17 15 18 18 19 19 20 20 23 21 21 22 22 23 5 24 4 25
REMARK SMILES IDX 2 26 1 27 3 28
REMARK H PARENT 6 7 14 16 17 17
ROOT
ATOM      1  N   UNL     1      51.531  52.469  19.428  1.00  0.00    -0.281 NA
ATOM      2  C   UNL     1      51.899  53.756  18.798  1.00  0.00    +0.147 C 
ATOM      3  C   UNL     1      52.220  54.892  19.797  1.00  0.00    +0.278 C 
ATOM      4  N   UNL     1      51.307  54.821  21.011  1.00  0.00    -0.333 N 
ATOM      5  C   UNL     1      51.485  53.489  21.739  1.00  0.00    +0.278 C 
ATOM      6  C   UNL     1      52.015  52.365  20.815  1.00  0.00    +0.147 C 
ATOM      7  H   UNL     1      51.626  55.560  21.648  1.00  0.00    +0.348 HD
ENDROOT
BRANCH   1   8
ATOM      8  C   UNL     1      51.868  51.269  18.607  1.00  0.00    +0.144 C 
ATOM      9  C   UNL     1      52.407  50.131  19.477  1.00  0.00    +0.035 C 
BRANCH   8  10
ATOM     10  C   UNL     1      50.692  50.770  17.723  1.00  0.00    +0.245 C 
ATOM     11  O   UNL     1      49.533  50.685  18.132  1.00  0.00    -0.273 OA
ATOM     12  N   UNL     1      51.076  50.446  16.431  1.00  0.00    -0.277 N 
ATOM     13  C   UNL     1      50.297  50.034  15.382  1.00  0.00    +0.321 C 
ATOM     14  O   UNL     1      50.778  49.996  14.254  1.00  0.00    -0.248 OA
ATOM     15  N   UNL     1      49.018  49.682  15.680  1.00  0.00    -0.335 N 
ATOM     16  H   UNL     1      52.016  50.659  16.125  1.00  0.00    +0.174 HD
ATOM     17  H   UNL     1      48.642  50.047  16.550  1.00  0.00    +0.165 HD
BRANCH  15  18
ATOM     18  C   UNL     1      48.052  49.383  14.636  1.00  0.00    +0.149 C 
BRANCH  18  19
ATOM     19  C   UNL     1      47.179  48.177  14.993  1.00  0.00    +0.137 C 
ATOM     20  C   UNL     1      47.566  47.535  16.315  1.00  0.00    +0.036 C 
ATOM     21  O   UNL     1      45.799  48.587  15.140  1.00  0.00    -0.376 OA
ATOM     22  C   UNL     1      46.270  46.878  16.720  1.00  0.00    +0.031 C 
ATOM     23  C   UNL     1      45.248  47.904  16.277  1.00  0.00    +0.160 C 
ENDBRANCH  18  19
ENDBRANCH  15  18
ENDBRANCH   8  10
ENDBRANCH   1   8
BRANCH   4  24
ATOM     24  C   UNL     1      49.864  55.130  20.658  1.00  0.00    +0.262 C 
BRANCH  24  25
ATOM     25  C   UNL     1      49.718  56.608  20.294  1.00  0.00    +0.064 C 
BRANCH  25  26
ATOM     26  C   UNL     1      48.589  57.310  21.069  1.00  0.00    -0.012 C 
ATOM     27  C   UNL     1      49.112  58.309  22.098  1.00  0.00    +0.007 C 
ATOM     28  C   UNL     1      47.650  58.020  20.091  1.00  0.00    +0.007 C 
ENDBRANCH  25  26
ENDBRANCH  24  25
ENDBRANCH   4  24
TORSDOF 7
ENDMDL
MODEL 3
REMARK VINA RESULT:    -7.855      1.938      2.845
REMARK INTER + INTRA:         -11.855
REMARK INTER:                 -11.290
REMARK INTRA:                  -0.565
REMARK UNBOUND:                -0.786
REMARK SMILES CC(C)CC[NH+]1CCN([C@@H](C)C(=O)NC(=O)NC[C@H]2CCCO2)CC1
REMARK SMILES IDX 9 1 8 2 7 3 6 4 25 5 24 6 10 8 11 9 12 10 13 11 14 12 15 13
REMARK SMILES IDX 16 14 17 15 18 18 19 19 20 20 23 21 21 22 22 23 5 24 4 25
REMARK SMILES IDX 2 26 1 27 3 28
REMARK H PARENT 6 7 14 16 17 17
ROOT
ATOM      1  N   UNL     1      51.445  52.017  19.765  1.00  0.00    -0.281 NA
ATOM      2  C   UNL     1      51.855  53.154  18.913  1.00  0.00    +0.147 C 
ATOM      3  C   UNL     1      52.352  54.395  19.691  1.00  0.00    +0.278 C 
ATOM      4  N   UNL     1      51.548  54.593  20.967  1.00  0.00    -0.333 N 
ATOM      5  C   UNL     1      51.686  53.375  21.882  1.00  0.00    +0.278 C 
ATOM      6  C   UNL     1      52.042  52.081  21.110  1.00  0.00    +0.147 C 
ATOM      7  H   UNL     1      51.980  55.387  21.454  1.00  0.00    +0.348 HD
ENDROOT
BRANCH   1   8
ATOM      8  C   UNL     1      51.613  50.681  19.121  1.00  0.00    +0.144 C 
ATOM      9  C   UNL     1      52.736  49.879  19.784  1.00  0.00    +0.035 C 
BRANCH   8  10
ATOM     10  C   UNL     1      50.303  49.846  19.071  1.00  0.00    +0.245 C 
ATOM     11  O   UNL     1      50.155  48.791  19.689  1.00  0.00    -0.273 OA
ATOM     12  N   UNL     1      49.321  50.414  18.274  1.00  0.00    -0.277 N 
ATOM     13  C   UNL     1      48.041  49.982  18.053  1.00  0.00    +0.321 C 
ATOM     14  O   UNL     1      47.245  50.724  17.485  1.00  0.00    -0.248 OA
ATOM     15  N   UNL     1      47.741  48.727  18.483  1.00  0.00    -0.335 N 
ATOM     16  H   UNL     1      49.463  51.341  17.898  1.00  0.00    +0.174 HD
ATOM     17  H   UNL     1      48.349  48.341  19.199  1.00  0.00    +0.165 HD
BRANCH  15  18
ATOM     18  C   UNL     1      46.381  48.219  18.450  1.00  0.00    +0.149 C 
BRANCH  18  19
ATOM     19  C   UNL     1      46.050  47.556  17.111  1.00  0.00    +0.137 C 
ATOM     20  C   UNL     1      44.903  48.235  16.380  1.00  0.00    +0.036 C 
ATOM     21  O   UNL     1      47.188  47.633  16.221  1.00  0.00    -0.376 OA
ATOM     22  C   UNL     1      45.197  47.861  14.948  1.00  0.00    +0.031 C 
ATOM     23  C   UNL     1      46.708  47.952  14.906  1.00  0.00    +0.160 C 
ENDBRANCH  18  19
ENDBRANCH  15  18
ENDBRANCH   8  10
ENDBRANCH   1   8
BRANCH   4  24
ATOM     24  C   UNL     1      50.108  54.974  20.681  1.00  0.00    +0.262 C 
BRANCH  24  25
ATOM     25  C   UNL     1      50.000  56.483  20.459  1.00  0.00    +0.064 C 
BRANCH  25  26
ATOM     26  C   UNL     1      48.672  57.073  20.967  1.00  0.00    -0.012 C 
ATOM     27  C   UNL     1      48.874  58.258  21.908  1.00  0.00    +0.007 C 
ATOM     28  C   UNL     1      47.804  57.497  19.780  1.00  0.00    +0.007 C 
ENDBRANCH  25  26
ENDBRANCH  24  25
ENDBRANCH   4  24
TORSDOF 7
ENDMDL
MODEL 4
REMARK VINA RESULT:    -7.682      2.466      3.117
REMARK INTER + INTRA:         -11.612
REMARK INTER:                 -10.977
REMARK INTRA:                  -0.635
REMARK UNBOUND:                -0.786
REMARK SMILES CC(C)CC[NH+]1CCN([C@@H](C)C(=O)NC(=O)NC[C@H]2CCCO2)CC1
REMARK SMILES IDX 9 1 8 2 7 3 6 4 25 5 24 6 10 8 11 9 12 10 13 11 14 12 15 13
REMARK SMILES IDX 16 14 17 15 18 18 19 19 20 20 23 21 21 22 22 23 5 24 4 25
REMARK SMILES IDX 2 26 1 27 3 28
REMARK H PARENT 6 7 14 16 17 17
ROOT
ATOM      1  N   UNL     1      50.832  52.046  19.483  1.00  0.00    -0.281 NA
ATOM      2  C   UNL     1      51.660  52.885  18.589  1.00  0.00    +0.147 C 
ATOM      3  C   UNL     1      52.172  54.197  19.229  1.00  0.00    +0.278 C 
ATOM      4  N   UNL     1      51.122  54.796  20.152  1.00  0.00    -0.333 N 
ATOM      5  C   UNL     1      50.781  53.822  21.280  1.00  0.00    +0.278 C 
ATOM      6  C   UNL     1      51.064  52.346  20.906  1.00  0.00    +0.147 C 
ATOM      7  H   UNL     1      51.560  55.617  20.584  1.00  0.00    +0.348 HD
ENDROOT
BRANCH   1   8
ATOM      8  C   UNL     1      50.896  50.586  19.181  1.00  0.00    +0.144 C 
ATOM      9  C   UNL     1      50.761  49.747  20.455  1.00  0.00    +0.035 C 
BRANCH   8  10
ATOM     10  C   UNL     1      49.866  50.126  18.113  1.00  0.00    +0.245 C 
ATOM     11  O   UNL     1      48.691  49.868  18.379  1.00  0.00    -0.273 OA
ATOM     12  N   UNL     1      50.398  50.049  16.836  1.00  0.00    -0.277 N 
ATOM     13  C   UNL     1      49.767  49.738  15.660  1.00  0.00    +0.321 C 
ATOM     14  O   UNL     1      50.350  49.925  14.597  1.00  0.00    -0.248 OA
ATOM     15  N   UNL     1      48.512  49.224  15.764  1.00  0.00    -0.335 N 
ATOM     16  H   UNL     1      51.333  50.396  16.666  1.00  0.00    +0.174 HD
ATOM     17  H   UNL     1      48.022  49.409  16.634  1.00  0.00    +0.165 HD
BRANCH  15  18
ATOM     18  C   UNL     1      47.683  49.005  14.592  1.00  0.00    +0.149 C 
BRANCH  18  19
ATOM     19  C   UNL     1      46.583  47.974  14.853  1.00  0.00    +0.137 C 
ATOM     20  C   UNL     1      45.666  48.363  16.001  1.00  0.00    +0.036 C 
ATOM     21  O   UNL     1      45.731  47.848  13.690  1.00  0.00    -0.376 OA
ATOM     22  C   UNL     1      44.407  47.611  15.647  1.00  0.00    +0.031 C 
ATOM     23  C   UNL     1      44.370  47.757  14.141  1.00  0.00    +0.160 C 
ENDBRANCH  18  19
ENDBRANCH  15  18
ENDBRANCH   8  10
ENDBRANCH   1   8
BRANCH   4  24
ATOM     24  C   UNL     1      49.906  55.288  19.390  1.00  0.00    +0.262 C 
BRANCH  24  25
ATOM     25  C   UNL     1      48.847  55.799  20.367  1.00  0.00    +0.064 C 
BRANCH  25  26
ATOM     26  C   UNL     1      48.913  57.323  20.583  1.00  0.00    -0.012 C 
ATOM     27  C   UNL     1      47.542  57.989  20.506  1.00  0.00    +0.007 C 
ATOM     28  C   UNL     1      49.562  57.629  21.934  1.00  0.00    +0.007 C 
ENDBRANCH  25  26
ENDBRANCH  24  25
ENDBRANCH   4  24
TORSDOF 7
ENDMDL
MODEL 5
REMARK VINA RESULT:    -7.293      2.316      8.190
REMARK INTER + INTRA:         -11.063
REMARK INTER:                 -10.326
REMARK INTRA:                  -0.737
REMARK UNBOUND:                -0.786
REMARK SMILES CC(C)CC[NH+]1CCN([C@@H](C)C(=O)NC(=O)NC[C@H]2CCCO2)CC1
REMARK SMILES IDX 9 1 8 2 7 3 6 4 25 5 24 6 10 8 11 9 12 10 13 11 14 12 15 13
REMARK SMILES IDX 16 14 17 15 18 18 19 19 20 20 23 21 21 22 22 23 5 24 4 25
REMARK SMILES IDX 2 26 1 27 3 28
REMARK H PARENT 6 7 14 16 17 17
ROOT
ATOM      1  N   UNL     1      49.266  49.818  17.888  1.00  0.00    -0.281 NA
ATOM      2  C   UNL     1      48.774  48.427  17.786  1.00  0.00    +0.147 C 
ATOM      3  C   UNL     1      48.875  47.812  16.370  1.00  0.00    +0.278 C 
ATOM      4  N   UNL     1      48.573  48.853  15.303  1.00  0.00    -0.333 N 
ATOM      5  C   UNL     1      49.569  50.010  15.387  1.00  0.00    +0.278 C 
ATOM      6  C   UNL     1      50.191  50.168  16.797  1.00  0.00    +0.147 C 
ATOM      7  H   UNL     1      48.726  48.387  14.402  1.00  0.00    +0.348 HD
ENDROOT
BRANCH   1   8
ATOM      8  C   UNL     1      49.798  50.180  19.235  1.00  0.00    +0.144 C 
ATOM      9  C   UNL     1      50.678  49.065  19.805  1.00  0.00    +0.035 C 
BRANCH   8  10
ATOM     10  C   UNL     1      50.552  51.538  19.261  1.00  0.00    +0.245 C 
ATOM     11  O   UNL     1      51.749  51.636  19.532  1.00  0.00    -0.273 OA
ATOM     12  N   UNL     1      49.747  52.619  18.937  1.00  0.00    -0.277 N 
ATOM     13  C   UNL     1      50.093  53.938  18.809  1.00  0.00    +0.321 C 
ATOM     14  O   UNL     1      49.293  54.724  18.310  1.00  0.00    -0.248 OA
ATOM     15  N   UNL     1      51.326  54.288  19.263  1.00  0.00    -0.335 N 
ATOM     16  H   UNL     1      48.807  52.455  18.603  1.00  0.00    +0.174 HD
ATOM     17  H   UNL     1      52.002  53.535  19.352  1.00  0.00    +0.165 HD
BRANCH  15  18
ATOM     18  C   UNL     1      51.867  55.617  19.038  1.00  0.00    +0.149 C 
BRANCH  18  19
ATOM     19  C   UNL     1      51.896  56.448  20.323  1.00  0.00    +0.137 C 
ATOM     20  C   UNL     1      50.521  56.945  20.739  1.00  0.00    +0.036 C 
ATOM     21  O   UNL     1      52.378  55.646  21.425  1.00  0.00    -0.376 OA
ATOM     22  C   UNL     1      50.707  57.130  22.225  1.00  0.00    +0.031 C 
ATOM     23  C   UNL     1      51.578  55.945  22.581  1.00  0.00    +0.160 C 
ENDBRANCH  18  19
ENDBRANCH  15  18
ENDBRANCH   8  10
ENDBRANCH   1   8
BRANCH   4  24
ATOM     24  C   UNL     1      47.123  49.300  15.335  1.00  0.00    +0.262 C 
BRANCH  24  25
ATOM     25  C   UNL     1      46.229  48.216  14.733  1.00  0.00    +0.064 C 
BRANCH  25  26
ATOM     26  C   UNL     1      45.043  47.840  15.641  1.00  0.00    -0.012 C 
ATOM     27  C   UNL     1      44.970  46.342  15.926  1.00  0.00    +0.007 C 
ATOM     28  C   UNL     1      45.132  48.614  16.958  1.00  0.00    +0.007 C 
ENDBRANCH  25  26
ENDBRANCH  24  25
ENDBRANCH   4  24
TORSDOF 7
ENDMDL
