MODEL 1
REMARK VINA RESULT:    -7.737      0.000      0.000
REMARK INTER + INTRA:         -10.599
REMARK INTER:                  -9.999
REMARK INTRA:                  -0.601
REMARK UNBOUND:                -0.601
REMARK SMILES Cc1ccc(C)c([C@@H](C)[NH2+]C/C([O-])=N/c2nncs2)c1
REMARK SMILES IDX 10 1 8 4 9 5 7 6 2 7 3 8 20 9 4 10 5 11 1 12 6 13 11 14
REMARK SMILES IDX 12 15 14 16 13 17 15 18 16 19 19 20 17 21 18 22
REMARK H PARENT 10 2 10 3
ROOT
ATOM      1  N   UNL     1      49.328  51.837  18.118  1.00  0.00    -0.336 N 
ATOM      2  H   UNL     1      49.039  50.957  18.581  1.00  0.00    +0.347 HD
ATOM      3  H   UNL     1      48.978  52.606  18.687  1.00  0.00    +0.347 HD
ENDROOT
BRANCH   1   4
ATOM      4  C   UNL     1      48.744  51.869  16.751  1.00  0.00    +0.210 C 
ATOM      5  C   UNL     1      47.973  53.162  16.484  1.00  0.00    +0.081 C 
BRANCH   4   6
ATOM      6  C   UNL     1      48.011  50.575  16.424  1.00  0.00    +0.012 A 
ATOM      7  C   UNL     1      46.135  49.045  16.850  1.00  0.00    -0.051 A 
ATOM      8  C   UNL     1      46.653  48.153  15.914  1.00  0.00    +0.004 A 
ATOM      9  C   UNL     1      46.822  50.238  17.107  1.00  0.00    +0.013 A 
ATOM     10  C   UNL     1      47.827  48.459  15.228  1.00  0.00    +0.004 A 
ATOM     11  C   UNL     1      48.520  49.658  15.472  1.00  0.00    -0.042 A 
ATOM     12  C   UNL     1      44.889  48.706  17.617  1.00  0.00    +0.044 C 
ATOM     13  C   UNL     1      49.769  49.925  14.672  1.00  0.00    +0.045 C 
ENDBRANCH   4   6
ENDBRANCH   1   4
BRANCH   1  14
ATOM     14  C   UNL     1      50.821  51.768  18.267  1.00  0.00    +0.301 C 
BRANCH  14  15
ATOM     15  C   UNL     1      51.268  53.057  18.992  1.00  0.00    +0.023 C 
ATOM     16  N   UNL     1      50.633  53.194  20.129  1.00  0.00    -0.233 NA
ATOM     17  O   UNL     1      52.154  53.733  18.441  1.00  0.00    -0.858 OA
BRANCH  16  18
ATOM     18  C   UNL     1      50.990  54.234  20.935  1.00  0.00    +0.230 A 
ATOM     19  N   UNL     1      51.815  54.154  21.967  1.00  0.00    -0.118 NA
ATOM     20  S   UNL     1      50.211  55.779  20.821  1.00  0.00    -0.081 S 
ATOM     21  N   UNL     1      51.944  55.346  22.655  1.00  0.00    -0.145 NA
ATOM     22  C   UNL     1      51.180  56.281  22.136  1.00  0.00    +0.204 A 
ENDBRANCH  16  18
ENDBRANCH  14  15
ENDBRANCH   1  14
TORSDOF 5
ENDMDL
MODEL 2
REMARK VINA RESULT:    -7.596      1.935      3.463
REMARK INTER + INTRA:         -10.418
REMARK INTER:                  -9.851
REMARK INTRA:                  -0.566
REMARK UNBOUND:                -0.601
REMARK SMILES Cc1ccc(C)c([C@@H](C)[NH2+]C/C([O-])=N/c2nncs2)c1
REMARK SMILES IDX 10 1 8 4 9 5 7 6 2 7 3 8 20 9 4 10 5 11 1 12 6 13 11 14
REMARK SMILES IDX 12 15 14 16 13 17 15 18 16 19 19 20 17 21 18 22
REMARK H PARENT 10 2 10 3
ROOT
ATOM      1  N   UNL     1      50.578  52.746  20.355  1.00  0.00    -0.336 N 
ATOM      2  H   UNL     1      49.816  52.544  21.027  1.00  0.00    +0.347 HD
ATOM      3  H   UNL     1      50.284  53.545  19.797  1.00  0.00    +0.347 HD
ENDROOT
BRANCH   1   4
ATOM      4  C   UNL     1      50.789  51.544  19.504  1.00  0.00    +0.210 C 
ATOM      5  C   UNL     1      52.189  51.513  18.889  1.00  0.00    +0.081 C 
BRANCH   4   6
ATOM      6  C   UNL     1      49.630  51.329  18.540  1.00  0.00    +0.012 A 
ATOM      7  C   UNL     1      48.036  52.255  16.915  1.00  0.00    -0.051 A 
ATOM      8  C   UNL     1      47.435  51.004  16.796  1.00  0.00    +0.004 A 
ATOM      9  C   UNL     1      49.116  52.410  17.792  1.00  0.00    +0.013 A 
ATOM     10  C   UNL     1      47.920  49.920  17.525  1.00  0.00    +0.004 A 
ATOM     11  C   UNL     1      49.009  50.063  18.402  1.00  0.00    -0.042 A 
ATOM     12  C   UNL     1      47.496  53.435  16.159  1.00  0.00    +0.044 C 
ATOM     13  C   UNL     1      49.489  48.838  19.136  1.00  0.00    +0.045 C 
ENDBRANCH   4   6
ENDBRANCH   1   4
BRANCH   1  14
ATOM     14  C   UNL     1      51.678  53.181  21.280  1.00  0.00    +0.301 C 
BRANCH  14  15
ATOM     15  C   UNL     1      52.041  54.635  20.906  1.00  0.00    +0.023 C 
ATOM     16  N   UNL     1      52.089  55.391  21.974  1.00  0.00    -0.233 NA
ATOM     17  O   UNL     1      52.266  54.866  19.705  1.00  0.00    -0.858 OA
BRANCH  16  18
ATOM     18  C   UNL     1      52.495  56.684  21.820  1.00  0.00    +0.230 A 
ATOM     19  N   UNL     1      53.681  57.159  22.165  1.00  0.00    -0.118 NA
ATOM     20  S   UNL     1      51.392  57.930  21.334  1.00  0.00    -0.081 S 
ATOM     21  N   UNL     1      53.801  58.521  21.966  1.00  0.00    -0.145 NA
ATOM     22  C   UNL     1      52.684  59.036  21.505  1.00  0.00    +0.204 A 
ENDBRANCH  16  18
ENDBRANCH  14  15
ENDBRANCH   1  14
TORSDOF 5
ENDMDL
MODEL 3
REMARK VINA RESULT:    -7.249      3.427      5.742
REMARK INTER + INTRA:          -9.969
REMARK INTER:                  -9.279
REMARK INTRA:                  -0.690
REMARK UNBOUND:                -0.601
REMARK SMILES Cc1ccc(C)c([C@@H](C)[NH2+]C/C([O-])=N/c2nncs2)c1
REMARK SMILES IDX 10 1 8 4 9 5 7 6 2 7 3 8 20 9 4 10 5 11 1 12 6 13 11 14
REMARK SMILES IDX 12 15 14 16 13 17 15 18 16 19 19 20 17 21 18 22
REMARK H PARENT 10 2 10 3
ROOT
ATOM      1  N   UNL     1      50.699  54.220  18.644  1.00  0.00    -0.336 N 
ATOM      2  H   UNL     1      50.994  55.206  18.761  1.00  0.00    +0.347 HD
ATOM      3  H   UNL     1      51.088  53.893  17.761  1.00  0.00    +0.347 HD
ENDROOT
BRANCH   1   4
ATOM      4  C   UNL     1      49.213  54.168  18.631  1.00  0.00    +0.210 C 
ATOM      5  C   UNL     1      48.688  52.923  17.915  1.00  0.00    +0.081 C 
BRANCH   4   6
ATOM      6  C   UNL     1      48.609  55.495  18.194  1.00  0.00    +0.012 A 
ATOM      7  C   UNL     1      47.773  56.943  16.393  1.00  0.00    -0.051 A 
ATOM      8  C   UNL     1      47.560  57.964  17.316  1.00  0.00    +0.004 A 
ATOM      9  C   UNL     1      48.306  55.726  16.835  1.00  0.00    +0.013 A 
ATOM     10  C   UNL     1      47.854  57.764  18.664  1.00  0.00    +0.004 A 
ATOM     11  C   UNL     1      48.381  56.543  19.119  1.00  0.00    -0.042 A 
ATOM     12  C   UNL     1      47.491  57.164  14.934  1.00  0.00    +0.044 C 
ATOM     13  C   UNL     1      48.649  56.398  20.594  1.00  0.00    +0.045 C 
ENDBRANCH   4   6
ENDBRANCH   1   4
BRANCH   1  14
ATOM     14  C   UNL     1      51.438  53.559  19.772  1.00  0.00    +0.301 C 
BRANCH  14  15
ATOM     15  C   UNL     1      52.032  54.682  20.650  1.00  0.00    +0.023 C 
ATOM     16  N   UNL     1      52.414  55.695  19.913  1.00  0.00    -0.233 NA
ATOM     17  O   UNL     1      52.029  54.495  21.879  1.00  0.00    -0.858 OA
BRANCH  16  18
ATOM     18  C   UNL     1      52.870  56.810  20.551  1.00  0.00    +0.230 A 
ATOM     19  N   UNL     1      54.143  57.102  20.766  1.00  0.00    -0.118 NA
ATOM     20  S   UNL     1      51.790  57.896  21.363  1.00  0.00    -0.081 S 
ATOM     21  N   UNL     1      54.320  58.259  21.501  1.00  0.00    -0.145 NA
ATOM     22  C   UNL     1      53.167  58.784  21.848  1.00  0.00    +0.204 A 
ENDBRANCH  16  18
ENDBRANCH  14  15
ENDBRANCH   1  14
TORSDOF 5
ENDMDL
MODEL 4
REMARK VINA RESULT:    -6.931      3.737      7.179
REMARK INTER + INTRA:          -9.558
REMARK INTER:                  -9.200
REMARK INTRA:                  -0.358
REMARK UNBOUND:                -0.601
REMARK SMILES Cc1ccc(C)c([C@@H](C)[NH2+]C/C([O-])=N/c2nncs2)c1
REMARK SMILES IDX 10 1 8 4 9 5 7 6 2 7 3 8 20 9 4 10 5 11 1 12 6 13 11 14
REMARK SMILES IDX 12 15 14 16 13 17 15 18 16 19 19 20 17 21 18 22
REMARK H PARENT 10 2 10 3
ROOT
ATOM      1  N   UNL     1      48.616  54.326  19.048  1.00  0.00    -0.336 N 
ATOM      2  H   UNL     1      47.776  53.843  19.413  1.00  0.00    +0.347 HD
ATOM      3  H   UNL     1      49.386  54.108  19.677  1.00  0.00    +0.347 HD
ENDROOT
BRANCH   1   4
ATOM      4  C   UNL     1      48.345  55.788  19.018  1.00  0.00    +0.210 C 
ATOM      5  C   UNL     1      48.626  56.397  17.643  1.00  0.00    +0.081 C 
BRANCH   4   6
ATOM      6  C   UNL     1      48.975  56.501  20.206  1.00  0.00    +0.012 A 
ATOM      7  C   UNL     1      50.752  56.614  21.900  1.00  0.00    -0.051 A 
ATOM      8  C   UNL     1      50.146  57.737  22.458  1.00  0.00    +0.004 A 
ATOM      9  C   UNL     1      50.158  55.999  20.792  1.00  0.00    +0.013 A 
ATOM     10  C   UNL     1      48.976  58.252  21.901  1.00  0.00    +0.004 A 
ATOM     11  C   UNL     1      48.375  57.647  20.783  1.00  0.00    -0.042 A 
ATOM     12  C   UNL     1      51.994  56.035  22.515  1.00  0.00    +0.044 C 
ATOM     13  C   UNL     1      47.126  58.278  20.227  1.00  0.00    +0.045 C 
ENDBRANCH   4   6
ENDBRANCH   1   4
BRANCH   1  14
ATOM     14  C   UNL     1      48.831  53.601  17.751  1.00  0.00    +0.301 C 
BRANCH  14  15
ATOM     15  C   UNL     1      49.785  52.421  18.040  1.00  0.00    +0.023 C 
ATOM     16  N   UNL     1      50.357  52.562  19.209  1.00  0.00    -0.233 NA
ATOM     17  O   UNL     1      49.846  51.525  17.180  1.00  0.00    -0.858 OA
BRANCH  16  18
ATOM     18  C   UNL     1      51.155  51.550  19.653  1.00  0.00    +0.230 A 
ATOM     19  N   UNL     1      52.458  51.641  19.870  1.00  0.00    -0.118 NA
ATOM     20  S   UNL     1      50.568  49.923  19.784  1.00  0.00    -0.081 S 
ATOM     21  N   UNL     1      53.032  50.442  20.247  1.00  0.00    -0.145 NA
ATOM     22  C   UNL     1      52.144  49.474  20.270  1.00  0.00    +0.204 A 
ENDBRANCH  16  18
ENDBRANCH  14  15
ENDBRANCH   1  14
TORSDOF 5
ENDMDL
MODEL 5
REMARK VINA RESULT:    -6.792      2.185      2.812
REMARK INTER + INTRA:          -9.378
REMARK INTER:                  -9.294
REMARK INTRA:                  -0.084
REMARK UNBOUND:                -0.601
REMARK SMILES Cc1ccc(C)c([C@@H](C)[NH2+]C/C([O-])=N/c2nncs2)c1
REMARK SMILES IDX 10 1 8 4 9 5 7 6 2 7 3 8 20 9 4 10 5 11 1 12 6 13 11 14
REMARK SMILES IDX 12 15 14 16 13 17 15 18 16 19 19 20 17 21 18 22
REMARK H PARENT 10 2 10 3
ROOT
ATOM      1  N   UNL     1      50.866  51.386  20.061  1.00  0.00    -0.336 N 
ATOM      2  H   UNL     1      50.708  50.812  20.909  1.00  0.00    +0.347 HD
ATOM      3  H   UNL     1      50.155  52.114  20.054  1.00  0.00    +0.347 HD
ENDROOT
BRANCH   1   4
ATOM      4  C   UNL     1      50.747  50.507  18.866  1.00  0.00    +0.210 C 
ATOM      5  C   UNL     1      51.824  50.806  17.824  1.00  0.00    +0.081 C 
BRANCH   4   6
ATOM      6  C   UNL     1      49.315  50.451  18.352  1.00  0.00    +0.012 A 
ATOM      7  C   UNL     1      47.259  49.160  17.966  1.00  0.00    -0.051 A 
ATOM      8  C   UNL     1      46.684  50.267  17.347  1.00  0.00    +0.004 A 
ATOM      9  C   UNL     1      48.570  49.256  18.450  1.00  0.00    +0.013 A 
ATOM     10  C   UNL     1      47.399  51.458  17.233  1.00  0.00    +0.004 A 
ATOM     11  C   UNL     1      48.711  51.568  17.723  1.00  0.00    -0.042 A 
ATOM     12  C   UNL     1      46.508  47.863  18.061  1.00  0.00    +0.044 C 
ATOM     13  C   UNL     1      49.407  52.896  17.584  1.00  0.00    +0.045 C 
ENDBRANCH   4   6
ENDBRANCH   1   4
BRANCH   1  14
ATOM     14  C   UNL     1      52.195  52.010  20.373  1.00  0.00    +0.301 C 
BRANCH  14  15
ATOM     15  C   UNL     1      51.916  53.320  21.142  1.00  0.00    +0.023 C 
ATOM     16  N   UNL     1      51.902  54.344  20.327  1.00  0.00    -0.233 NA
ATOM     17  O   UNL     1      51.713  53.220  22.365  1.00  0.00    -0.858 OA
BRANCH  16  18
ATOM     18  C   UNL     1      51.570  55.562  20.841  1.00  0.00    +0.230 A 
ATOM     19  N   UNL     1      50.350  55.936  21.195  1.00  0.00    -0.118 NA
ATOM     20  S   UNL     1      52.709  56.868  20.890  1.00  0.00    -0.081 S 
ATOM     21  N   UNL     1      50.284  57.250  21.618  1.00  0.00    -0.145 NA
ATOM     22  C   UNL     1      51.457  57.836  21.535  1.00  0.00    +0.204 A 
ENDBRANCH  16  18
ENDBRANCH  14  15
ENDBRANCH   1  14
TORSDOF 5
ENDMDL
