MODEL 1
REMARK VINA RESULT:    -7.463      0.000      0.000
REMARK INTER + INTRA:         -10.637
REMARK INTER:                 -10.299
REMARK INTRA:                  -0.339
REMARK UNBOUND:                -0.339
REMARK SMILES CCCSCc1nc(N)nc(Nc2ccc(F)cc2)n1
REMARK SMILES IDX 5 1 4 2 3 3 2 4 1 5 6 6 7 7 20 8 8 9 11 10 10 11 9 12 12 15
REMARK SMILES IDX 13 17 14 18 19 19 15 20 18 21 16 22 17 23
REMARK H PARENT 9 13 9 14 12 16
ROOT
ATOM      1  C   UNL     1      51.560  53.496  21.209  1.00  0.00    +0.147 C 
ENDROOT
BRANCH   1   2
ATOM      2  S   UNL     1      52.037  54.973  20.242  1.00  0.00    -0.154 SA
BRANCH   2   3
ATOM      3  C   UNL     1      51.333  56.307  21.269  1.00  0.00    +0.069 C 
BRANCH   3   4
ATOM      4  C   UNL     1      49.978  56.792  20.764  1.00  0.00    +0.007 C 
ATOM      5  C   UNL     1      49.319  57.721  21.775  1.00  0.00    +0.005 C 
ENDBRANCH   3   4
ENDBRANCH   2   3
ENDBRANCH   1   2
BRANCH   1   6
ATOM      6  C   UNL     1      51.489  52.222  20.406  1.00  0.00    +0.146 A 
ATOM      7  N   UNL     1      52.418  51.293  20.631  1.00  0.00    -0.197 NA
ATOM      8  N   UNL     1      50.492  52.090  19.530  1.00  0.00    -0.197 NA
ATOM      9  C   UNL     1      52.304  50.203  19.893  1.00  0.00    +0.225 A 
ATOM     10  C   UNL     1      50.452  50.948  18.855  1.00  0.00    +0.232 A 
ATOM     11  N   UNL     1      51.345  49.973  19.012  1.00  0.00    -0.177 NA
BRANCH   9  12
ATOM     12  N   UNL     1      53.241  49.209  20.088  1.00  0.00    -0.368 N 
ATOM     13  H   UNL     1      52.798  48.345  20.368  1.00  0.00    +0.159 HD
ATOM     14  H   UNL     1      53.892  49.170  19.316  1.00  0.00    +0.159 HD
ENDBRANCH   9  12
BRANCH  10  15
ATOM     15  N   UNL     1      49.461  50.690  17.910  1.00  0.00    -0.324 N 
ATOM     16  H   UNL     1      49.762  51.039  17.012  1.00  0.00    +0.170 HD
BRANCH  15  17
ATOM     17  C   UNL     1      48.237  50.015  17.946  1.00  0.00    +0.041 A 
ATOM     18  C   UNL     1      47.172  50.521  17.177  1.00  0.00    +0.029 A 
ATOM     19  C   UNL     1      47.993  48.880  18.731  1.00  0.00    +0.029 A 
ATOM     20  C   UNL     1      45.915  49.907  17.183  1.00  0.00    +0.041 A 
ATOM     21  C   UNL     1      46.737  48.263  18.740  1.00  0.00    +0.041 A 
ATOM     22  C   UNL     1      45.710  48.781  17.966  1.00  0.00    +0.123 A 
ATOM     23  F   UNL     1      44.509  48.190  17.974  1.00  0.00    -0.207 F 
ENDBRANCH  15  17
ENDBRANCH  10  15
ENDBRANCH   1   6
TORSDOF 7
ENDMDL
MODEL 2
REMARK VINA RESULT:    -7.264      1.641      1.977
REMARK INTER + INTRA:         -10.364
REMARK INTER:                  -9.958
REMARK INTRA:                  -0.406
REMARK UNBOUND:                -0.339
REMARK SMILES CCCSCc1nc(N)nc(Nc2ccc(F)cc2)n1
REMARK SMILES IDX 5 1 4 2 3 3 2 4 1 5 6 6 7 7 20 8 8 9 11 10 10 11 9 12 12 15
REMARK SMILES IDX 13 17 14 18 19 19 15 20 18 21 16 22 17 23
REMARK H PARENT 9 13 9 14 12 16
ROOT
ATOM      1  C   UNL     1      50.125  53.616  18.475  1.00  0.00    +0.147 C 
ENDROOT
BRANCH   1   2
ATOM      2  S   UNL     1      49.088  54.668  19.554  1.00  0.00    -0.154 SA
BRANCH   2   3
ATOM      3  C   UNL     1      50.313  55.888  20.136  1.00  0.00    +0.069 C 
BRANCH   3   4
ATOM      4  C   UNL     1      49.754  56.828  21.200  1.00  0.00    +0.007 C 
ATOM      5  C   UNL     1      48.372  57.334  20.809  1.00  0.00    +0.005 C 
ENDBRANCH   3   4
ENDBRANCH   2   3
ENDBRANCH   1   2
BRANCH   1   6
ATOM      6  C   UNL     1      50.440  52.257  19.048  1.00  0.00    +0.146 A 
ATOM      7  N   UNL     1      51.177  52.206  20.157  1.00  0.00    -0.197 NA
ATOM      8  N   UNL     1      49.948  51.187  18.423  1.00  0.00    -0.197 NA
ATOM      9  C   UNL     1      51.421  50.988  20.607  1.00  0.00    +0.225 A 
ATOM     10  C   UNL     1      50.230  50.010  18.967  1.00  0.00    +0.232 A 
ATOM     11  N   UNL     1      50.967  49.869  20.067  1.00  0.00    -0.177 NA
BRANCH   9  12
ATOM     12  N   UNL     1      52.180  50.879  21.754  1.00  0.00    -0.368 N 
ATOM     13  H   UNL     1      52.924  51.563  21.761  1.00  0.00    +0.159 HD
ATOM     14  H   UNL     1      51.590  50.823  22.573  1.00  0.00    +0.159 HD
ENDBRANCH   9  12
BRANCH  10  15
ATOM     15  N   UNL     1      49.777  48.817  18.407  1.00  0.00    -0.324 N 
ATOM     16  H   UNL     1      50.567  48.212  18.234  1.00  0.00    +0.170 HD
BRANCH  15  17
ATOM     17  C   UNL     1      48.510  48.296  18.126  1.00  0.00    +0.041 A 
ATOM     18  C   UNL     1      48.378  47.406  17.044  1.00  0.00    +0.029 A 
ATOM     19  C   UNL     1      47.351  48.633  18.838  1.00  0.00    +0.029 A 
ATOM     20  C   UNL     1      47.137  46.865  16.695  1.00  0.00    +0.041 A 
ATOM     21  C   UNL     1      46.107  48.093  18.493  1.00  0.00    +0.041 A 
ATOM     22  C   UNL     1      46.011  47.214  17.425  1.00  0.00    +0.123 A 
ATOM     23  F   UNL     1      44.821  46.697  17.095  1.00  0.00    -0.207 F 
ENDBRANCH  15  17
ENDBRANCH  10  15
ENDBRANCH   1   6
TORSDOF 7
ENDMDL
MODEL 3
REMARK VINA RESULT:    -5.986      2.040      2.419
REMARK INTER + INTRA:          -8.600
REMARK INTER:                  -8.252
REMARK INTRA:                  -0.348
REMARK UNBOUND:                -0.339
REMARK SMILES CCCSCc1nc(N)nc(Nc2ccc(F)cc2)n1
REMARK SMILES IDX 5 1 4 2 3 3 2 4 1 5 6 6 7 7 20 8 8 9 11 10 10 11 9 12 12 15
REMARK SMILES IDX 13 17 14 18 19 19 15 20 18 21 16 22 17 23
REMARK H PARENT 9 13 9 14 12 16
ROOT
ATOM      1  C   UNL     1      50.576  54.751  20.304  1.00  0.00    +0.147 C 
ENDROOT
BRANCH   1   2
ATOM      2  S   UNL     1      51.271  56.286  19.592  1.00  0.00    -0.154 SA
BRANCH   2   3
ATOM      3  C   UNL     1      52.913  56.330  20.388  1.00  0.00    +0.069 C 
BRANCH   3   4
ATOM      4  C   UNL     1      52.938  57.193  21.646  1.00  0.00    +0.007 C 
ATOM      5  C   UNL     1      52.308  58.554  21.387  1.00  0.00    +0.005 C 
ENDBRANCH   3   4
ENDBRANCH   2   3
ENDBRANCH   1   2
BRANCH   1   6
ATOM      6  C   UNL     1      50.553  53.580  19.355  1.00  0.00    +0.146 A 
ATOM      7  N   UNL     1      51.607  52.764  19.349  1.00  0.00    -0.197 NA
ATOM      8  N   UNL     1      49.474  53.418  18.588  1.00  0.00    -0.197 NA
ATOM      9  C   UNL     1      51.528  51.760  18.494  1.00  0.00    +0.225 A 
ATOM     10  C   UNL     1      49.483  52.365  17.780  1.00  0.00    +0.232 A 
ATOM     11  N   UNL     1      50.497  51.507  17.706  1.00  0.00    -0.177 NA
BRANCH   9  12
ATOM     12  N   UNL     1      52.593  50.884  18.450  1.00  0.00    -0.368 N 
ATOM     13  H   UNL     1      52.438  50.161  17.762  1.00  0.00    +0.159 HD
ATOM     14  H   UNL     1      53.471  51.384  18.410  1.00  0.00    +0.159 HD
ENDBRANCH   9  12
BRANCH  10  15
ATOM     15  N   UNL     1      48.415  52.088  16.928  1.00  0.00    -0.324 N 
ATOM     16  H   UNL     1      48.041  52.956  16.574  1.00  0.00    +0.170 HD
BRANCH  15  17
ATOM     17  C   UNL     1      47.845  50.909  16.438  1.00  0.00    +0.041 A 
ATOM     18  C   UNL     1      48.327  50.389  15.221  1.00  0.00    +0.029 A 
ATOM     19  C   UNL     1      46.796  50.227  17.068  1.00  0.00    +0.029 A 
ATOM     20  C   UNL     1      47.788  49.226  14.663  1.00  0.00    +0.041 A 
ATOM     21  C   UNL     1      46.254  49.062  16.514  1.00  0.00    +0.041 A 
ATOM     22  C   UNL     1      46.755  48.572  15.317  1.00  0.00    +0.123 A 
ATOM     23  F   UNL     1      46.236  47.457  14.787  1.00  0.00    -0.207 F 
ENDBRANCH  15  17
ENDBRANCH  10  15
ENDBRANCH   1   6
TORSDOF 7
ENDMDL
