MODEL 1
REMARK VINA RESULT:    -8.942      0.000      0.000
REMARK INTER + INTRA:         -13.976
REMARK INTER:                 -12.602
REMARK INTRA:                  -1.374
REMARK UNBOUND:                -1.374
REMARK SMILES O=C(NC[C@H](c1ccco1)[NH+]1CCCC1)C(=O)Nc1ccc(N2CCCC2)cc1
REMARK SMILES IDX 3 1 2 2 1 3 4 5 5 6 6 7 8 8 7 9 9 10 10 11 11 12 12 13 15 14
REMARK SMILES IDX 13 15 14 16 16 18 17 19 18 20 19 22 20 23 29 24 21 25 28 26
REMARK SMILES IDX 22 27 23 28 24 29 27 30 25 31 26 32
REMARK H PARENT 3 4 11 17 18 21
ROOT
ATOM      1  N   UNL     1      51.098  51.753  21.120  1.00  0.00    -0.341 N 
ATOM      2  C   UNL     1      51.760  50.666  20.582  1.00  0.00    +0.309 C 
ATOM      3  O   UNL     1      52.967  50.486  20.618  1.00  0.00    -0.264 OA
ATOM      4  H   UNL     1      50.115  51.810  20.844  1.00  0.00    +0.164 HD
ENDROOT
BRANCH   1   5
ATOM      5  C   UNL     1      51.815  52.958  21.539  1.00  0.00    +0.190 C 
BRANCH   5   6
ATOM      6  C   UNL     1      50.945  54.229  21.376  1.00  0.00    +0.270 C 
BRANCH   6   7
ATOM      7  C   UNL     1      50.099  54.182  20.151  1.00  0.00    +0.162 A 
ATOM      8  C   UNL     1      48.558  54.257  18.525  1.00  0.00    +0.042 A 
ATOM      9  C   UNL     1      48.843  54.684  19.848  1.00  0.00    +0.052 A 
ATOM     10  C   UNL     1      49.651  53.538  18.107  1.00  0.00    +0.195 A 
ATOM     11  O   UNL     1      50.592  53.499  19.083  1.00  0.00    -0.463 OA
ENDBRANCH   6   7
BRANCH   6  12
ATOM     12  N   UNL     1      51.839  55.452  21.523  1.00  0.00    -0.325 N 
ATOM     13  C   UNL     1      51.218  56.652  22.199  1.00  0.00    +0.263 C 
ATOM     14  C   UNL     1      52.546  55.953  20.289  1.00  0.00    +0.263 C 
ATOM     15  C   UNL     1      51.831  57.860  21.503  1.00  0.00    +0.067 C 
ATOM     16  C   UNL     1      53.031  57.315  20.747  1.00  0.00    +0.067 C 
ATOM     17  H   UNL     1      52.593  55.125  22.142  1.00  0.00    +0.348 HD
ENDBRANCH   6  12
ENDBRANCH   5   6
ENDBRANCH   1   5
BRANCH   2  18
ATOM     18  C   UNL     1      50.819  49.653  19.903  1.00  0.00    +0.313 C 
ATOM     19  O   UNL     1      50.849  48.504  20.322  1.00  0.00    -0.263 OA
ATOM     20  N   UNL     1      50.037  50.228  18.930  1.00  0.00    -0.318 N 
ATOM     21  H   UNL     1      50.160  51.231  18.798  1.00  0.00    +0.170 HD
BRANCH  20  22
ATOM     22  C   UNL     1      49.016  49.608  18.188  1.00  0.00    +0.041 A 
ATOM     23  C   UNL     1      47.927  48.959  18.761  1.00  0.00    +0.028 A 
ATOM     24  C   UNL     1      49.096  49.671  16.797  1.00  0.00    +0.028 A 
ATOM     25  C   UNL     1      46.930  48.397  17.949  1.00  0.00    +0.028 A 
ATOM     26  C   UNL     1      48.085  49.118  15.998  1.00  0.00    +0.028 A 
ATOM     27  C   UNL     1      46.970  48.469  16.548  1.00  0.00    +0.037 A 
BRANCH  27  28
ATOM     28  N   UNL     1      45.979  47.931  15.768  1.00  0.00    -0.372 N 
ATOM     29  C   UNL     1      45.949  47.995  14.309  1.00  0.00    +0.116 C 
ATOM     30  C   UNL     1      44.836  47.171  16.286  1.00  0.00    +0.116 C 
ATOM     31  C   UNL     1      44.835  47.028  13.912  1.00  0.00    +0.023 C 
ATOM     32  C   UNL     1      43.886  47.083  15.097  1.00  0.00    +0.023 C 
ENDBRANCH  27  28
ENDBRANCH  20  22
ENDBRANCH   2  18
TORSDOF 7
ENDMDL
MODEL 2
REMARK VINA RESULT:    -8.567      1.579      8.944
REMARK INTER + INTRA:         -13.447
REMARK INTER:                 -12.331
REMARK INTRA:                  -1.117
REMARK UNBOUND:                -1.374
REMARK SMILES O=C(NC[C@H](c1ccco1)[NH+]1CCCC1)C(=O)Nc1ccc(N2CCCC2)cc1
REMARK SMILES IDX 3 1 2 2 1 3 4 5 5 6 6 7 8 8 7 9 9 10 10 11 11 12 12 13 15 14
REMARK SMILES IDX 13 15 14 16 16 18 17 19 18 20 19 22 20 23 29 24 21 25 28 26
REMARK SMILES IDX 22 27 23 28 24 29 27 30 25 31 26 32
REMARK H PARENT 3 4 11 17 18 21
ROOT
ATOM      1  N   UNL     1      50.085  49.128  18.663  1.00  0.00    -0.341 N 
ATOM      2  C   UNL     1      50.715  49.076  19.891  1.00  0.00    +0.309 C 
ATOM      3  O   UNL     1      50.663  48.139  20.673  1.00  0.00    -0.264 OA
ATOM      4  H   UNL     1      50.108  50.054  18.230  1.00  0.00    +0.164 HD
ENDROOT
BRANCH   1   5
ATOM      5  C   UNL     1      49.041  48.170  18.295  1.00  0.00    +0.190 C 
BRANCH   5   6
ATOM      6  C   UNL     1      48.227  48.652  17.070  1.00  0.00    +0.270 C 
BRANCH   6   7
ATOM      7  C   UNL     1      48.089  50.136  17.031  1.00  0.00    +0.162 A 
ATOM      8  C   UNL     1      47.515  52.302  17.022  1.00  0.00    +0.042 A 
ATOM      9  C   UNL     1      47.032  50.995  17.291  1.00  0.00    +0.052 A 
ATOM     10  C   UNL     1      48.823  52.158  16.629  1.00  0.00    +0.195 A 
ATOM     11  O   UNL     1      49.179  50.849  16.645  1.00  0.00    -0.463 OA
ENDBRANCH   6   7
BRANCH   6  12
ATOM     12  N   UNL     1      46.928  47.860  17.006  1.00  0.00    -0.325 N 
ATOM     13  C   UNL     1      46.141  47.976  15.722  1.00  0.00    +0.263 C 
ATOM     14  C   UNL     1      45.952  48.025  18.144  1.00  0.00    +0.263 C 
ATOM     15  C   UNL     1      44.680  47.908  16.146  1.00  0.00    +0.067 C 
ATOM     16  C   UNL     1      44.705  47.380  17.571  1.00  0.00    +0.067 C 
ATOM     17  H   UNL     1      47.242  46.882  17.070  1.00  0.00    +0.348 HD
ENDBRANCH   6  12
ENDBRANCH   5   6
ENDBRANCH   1   5
BRANCH   2  18
ATOM     18  C   UNL     1      51.524  50.346  20.216  1.00  0.00    +0.313 C 
ATOM     19  O   UNL     1      52.741  50.228  20.267  1.00  0.00    -0.263 OA
ATOM     20  N   UNL     1      50.728  51.457  20.361  1.00  0.00    -0.318 N 
ATOM     21  H   UNL     1      49.730  51.309  20.218  1.00  0.00    +0.170 HD
BRANCH  20  22
ATOM     22  C   UNL     1      51.152  52.782  20.567  1.00  0.00    +0.041 A 
ATOM     23  C   UNL     1      51.270  53.371  21.822  1.00  0.00    +0.028 A 
ATOM     24  C   UNL     1      51.493  53.536  19.445  1.00  0.00    +0.028 A 
ATOM     25  C   UNL     1      51.736  54.688  21.946  1.00  0.00    +0.028 A 
ATOM     26  C   UNL     1      51.972  54.847  19.584  1.00  0.00    +0.028 A 
ATOM     27  C   UNL     1      52.112  55.461  20.836  1.00  0.00    +0.037 A 
BRANCH  27  28
ATOM     28  N   UNL     1      52.583  56.742  20.973  1.00  0.00    -0.372 N 
ATOM     29  C   UNL     1      51.814  57.850  21.535  1.00  0.00    +0.116 C 
ATOM     30  C   UNL     1      53.942  57.168  20.622  1.00  0.00    +0.116 C 
ATOM     31  C   UNL     1      52.843  58.960  21.734  1.00  0.00    +0.023 C 
ATOM     32  C   UNL     1      53.865  58.690  20.641  1.00  0.00    +0.023 C 
ENDBRANCH  27  28
ENDBRANCH  20  22
ENDBRANCH   2  18
TORSDOF 7
ENDMDL
MODEL 3
REMARK VINA RESULT:    -8.370      1.241      2.872
REMARK INTER + INTRA:         -13.170
REMARK INTER:                 -12.648
REMARK INTRA:                  -0.521
REMARK UNBOUND:                -1.374
REMARK SMILES O=C(NC[C@H](c1ccco1)[NH+]1CCCC1)C(=O)Nc1ccc(N2CCCC2)cc1
REMARK SMILES IDX 3 1 2 2 1 3 4 5 5 6 6 7 8 8 7 9 9 10 10 11 11 12 12 13 15 14
REMARK SMILES IDX 13 15 14 16 16 18 17 19 18 20 19 22 20 23 29 24 21 25 28 26
REMARK SMILES IDX 22 27 23 28 24 29 27 30 25 31 26 32
REMARK H PARENT 3 4 11 17 18 21
ROOT
ATOM      1  N   UNL     1      50.925  52.413  21.486  1.00  0.00    -0.341 N 
ATOM      2  C   UNL     1      51.603  51.323  20.975  1.00  0.00    +0.309 C 
ATOM      3  O   UNL     1      52.813  51.161  21.017  1.00  0.00    -0.264 OA
ATOM      4  H   UNL     1      49.942  52.448  21.208  1.00  0.00    +0.164 HD
ENDROOT
BRANCH   1   5
ATOM      5  C   UNL     1      51.624  53.638  21.876  1.00  0.00    +0.190 C 
BRANCH   5   6
ATOM      6  C   UNL     1      51.544  54.720  20.771  1.00  0.00    +0.270 C 
BRANCH   6   7
ATOM      7  C   UNL     1      52.315  55.945  21.123  1.00  0.00    +0.162 A 
ATOM      8  C   UNL     1      53.246  57.809  21.948  1.00  0.00    +0.042 A 
ATOM      9  C   UNL     1      52.335  56.762  22.242  1.00  0.00    +0.052 A 
ATOM     10  C   UNL     1      53.726  57.561  20.685  1.00  0.00    +0.195 A 
ATOM     11  O   UNL     1      53.174  56.427  20.185  1.00  0.00    -0.463 OA
ENDBRANCH   6   7
BRANCH   6  12
ATOM     12  N   UNL     1      50.082  54.934  20.404  1.00  0.00    -0.325 N 
ATOM     13  C   UNL     1      49.696  54.598  18.983  1.00  0.00    +0.263 C 
ATOM     14  C   UNL     1      49.470  56.275  20.727  1.00  0.00    +0.263 C 
ATOM     15  C   UNL     1      48.621  55.612  18.615  1.00  0.00    +0.067 C 
ATOM     16  C   UNL     1      48.178  56.218  19.936  1.00  0.00    +0.067 C 
ATOM     17  H   UNL     1      49.583  54.267  21.009  1.00  0.00    +0.348 HD
ENDBRANCH   6  12
ENDBRANCH   5   6
ENDBRANCH   1   5
BRANCH   2  18
ATOM     18  C   UNL     1      50.678  50.280  20.320  1.00  0.00    +0.313 C 
ATOM     19  O   UNL     1      50.515  49.229  20.926  1.00  0.00    -0.263 OA
ATOM     20  N   UNL     1      50.131  50.725  19.141  1.00  0.00    -0.318 N 
ATOM     21  H   UNL     1      50.383  51.673  18.866  1.00  0.00    +0.170 HD
BRANCH  20  22
ATOM     22  C   UNL     1      49.180  50.062  18.344  1.00  0.00    +0.041 A 
ATOM     23  C   UNL     1      48.465  48.945  18.761  1.00  0.00    +0.028 A 
ATOM     24  C   UNL     1      48.931  50.574  17.071  1.00  0.00    +0.028 A 
ATOM     25  C   UNL     1      47.507  48.362  17.918  1.00  0.00    +0.028 A 
ATOM     26  C   UNL     1      47.959  49.992  16.245  1.00  0.00    +0.028 A 
ATOM     27  C   UNL     1      47.215  48.872  16.644  1.00  0.00    +0.037 A 
BRANCH  27  28
ATOM     28  N   UNL     1      46.262  48.303  15.838  1.00  0.00    -0.372 N 
ATOM     29  C   UNL     1      44.988  47.769  16.313  1.00  0.00    +0.116 C 
ATOM     30  C   UNL     1      46.367  48.198  14.378  1.00  0.00    +0.116 C 
ATOM     31  C   UNL     1      44.184  47.523  15.039  1.00  0.00    +0.023 C 
ATOM     32  C   UNL     1      45.254  47.226  14.001  1.00  0.00    +0.023 C 
ENDBRANCH  27  28
ENDBRANCH  20  22
ENDBRANCH   2  18
TORSDOF 7
ENDMDL
MODEL 4
REMARK VINA RESULT:    -8.369      1.701      2.183
REMARK INTER + INTRA:         -13.168
REMARK INTER:                 -11.876
REMARK INTRA:                  -1.292
REMARK UNBOUND:                -1.374
REMARK SMILES O=C(NC[C@H](c1ccco1)[NH+]1CCCC1)C(=O)Nc1ccc(N2CCCC2)cc1
REMARK SMILES IDX 3 1 2 2 1 3 4 5 5 6 6 7 8 8 7 9 9 10 10 11 11 12 12 13 15 14
REMARK SMILES IDX 13 15 14 16 16 18 17 19 18 20 19 22 20 23 29 24 21 25 28 26
REMARK SMILES IDX 22 27 23 28 24 29 27 30 25 31 26 32
REMARK H PARENT 3 4 11 17 18 21
ROOT
ATOM      1  N   UNL     1      51.972  53.443  19.482  1.00  0.00    -0.341 N 
ATOM      2  C   UNL     1      52.416  52.630  18.457  1.00  0.00    +0.309 C 
ATOM      3  O   UNL     1      53.448  52.792  17.823  1.00  0.00    -0.264 OA
ATOM      4  H   UNL     1      51.013  53.244  19.774  1.00  0.00    +0.164 HD
ENDROOT
BRANCH   1   5
ATOM      5  C   UNL     1      52.555  54.764  19.721  1.00  0.00    +0.190 C 
BRANCH   5   6
ATOM      6  C   UNL     1      51.582  55.689  20.492  1.00  0.00    +0.270 C 
BRANCH   6   7
ATOM      7  C   UNL     1      50.206  55.665  19.919  1.00  0.00    +0.162 A 
ATOM      8  C   UNL     1      48.023  55.666  19.414  1.00  0.00    +0.042 A 
ATOM      9  C   UNL     1      48.952  55.900  20.461  1.00  0.00    +0.052 A 
ATOM     10  C   UNL     1      48.764  55.317  18.311  1.00  0.00    +0.195 A 
ATOM     11  O   UNL     1      50.087  55.327  18.608  1.00  0.00    -0.463 OA
ENDBRANCH   6   7
BRANCH   6  12
ATOM     12  N   UNL     1      52.223  57.062  20.632  1.00  0.00    -0.325 N 
ATOM     13  C   UNL     1      53.731  57.103  20.554  1.00  0.00    +0.263 C 
ATOM     14  C   UNL     1      51.814  57.907  21.813  1.00  0.00    +0.263 C 
ATOM     15  C   UNL     1      54.146  58.213  21.511  1.00  0.00    +0.067 C 
ATOM     16  C   UNL     1      52.873  58.993  21.791  1.00  0.00    +0.067 C 
ATOM     17  H   UNL     1      51.873  57.574  19.810  1.00  0.00    +0.348 HD
ENDBRANCH   6  12
ENDBRANCH   5   6
ENDBRANCH   1   5
BRANCH   2  18
ATOM     18  C   UNL     1      51.471  51.450  18.160  1.00  0.00    +0.313 C 
ATOM     19  O   UNL     1      51.653  50.423  18.799  1.00  0.00    -0.263 OA
ATOM     20  N   UNL     1      50.515  51.762  17.224  1.00  0.00    -0.318 N 
ATOM     21  H   UNL     1      50.537  52.716  16.868  1.00  0.00    +0.170 HD
BRANCH  20  22
ATOM     22  C   UNL     1      49.450  50.948  16.797  1.00  0.00    +0.041 A 
ATOM     23  C   UNL     1      49.512  50.110  15.688  1.00  0.00    +0.028 A 
ATOM     24  C   UNL     1      48.275  50.972  17.547  1.00  0.00    +0.028 A 
ATOM     25  C   UNL     1      48.417  49.302  15.350  1.00  0.00    +0.028 A 
ATOM     26  C   UNL     1      47.193  50.147  17.206  1.00  0.00    +0.028 A 
ATOM     27  C   UNL     1      47.232  49.284  16.102  1.00  0.00    +0.037 A 
BRANCH  27  28
ATOM     28  N   UNL     1      46.176  48.475  15.769  1.00  0.00    -0.372 N 
ATOM     29  C   UNL     1      45.877  48.021  14.413  1.00  0.00    +0.116 C 
ATOM     30  C   UNL     1      45.227  47.911  16.736  1.00  0.00    +0.116 C 
ATOM     31  C   UNL     1      44.812  46.943  14.603  1.00  0.00    +0.023 C 
ATOM     32  C   UNL     1      44.091  47.382  15.868  1.00  0.00    +0.023 C 
ENDBRANCH  27  28
ENDBRANCH  20  22
ENDBRANCH   2  18
TORSDOF 7
ENDMDL
MODEL 5
REMARK VINA RESULT:    -8.192      4.165      9.057
REMARK INTER + INTRA:         -12.919
REMARK INTER:                 -11.759
REMARK INTRA:                  -1.160
REMARK UNBOUND:                -1.374
REMARK SMILES O=C(NC[C@H](c1ccco1)[NH+]1CCCC1)C(=O)Nc1ccc(N2CCCC2)cc1
REMARK SMILES IDX 3 1 2 2 1 3 4 5 5 6 6 7 8 8 7 9 9 10 10 11 11 12 12 13 15 14
REMARK SMILES IDX 13 15 14 16 16 18 17 19 18 20 19 22 20 23 29 24 21 25 28 26
REMARK SMILES IDX 22 27 23 28 24 29 27 30 25 31 26 32
REMARK H PARENT 3 4 11 17 18 21
ROOT
ATOM      1  N   UNL     1      49.360  53.208  18.313  1.00  0.00    -0.341 N 
ATOM      2  C   UNL     1      49.906  53.705  19.481  1.00  0.00    +0.309 C 
ATOM      3  O   UNL     1      50.464  53.038  20.340  1.00  0.00    -0.264 OA
ATOM      4  H   UNL     1      48.793  53.890  17.805  1.00  0.00    +0.164 HD
ENDROOT
BRANCH   1   5
ATOM      5  C   UNL     1      49.135  51.775  18.121  1.00  0.00    +0.190 C 
BRANCH   5   6
ATOM      6  C   UNL     1      50.273  51.121  17.299  1.00  0.00    +0.270 C 
BRANCH   6   7
ATOM      7  C   UNL     1      49.786  50.556  16.009  1.00  0.00    +0.162 A 
ATOM      8  C   UNL     1      48.711  49.742  14.219  1.00  0.00    +0.042 A 
ATOM      9  C   UNL     1      48.523  50.408  15.458  1.00  0.00    +0.052 A 
ATOM     10  C   UNL     1      50.064  49.537  14.092  1.00  0.00    +0.195 A 
ATOM     11  O   UNL     1      50.720  50.039  15.168  1.00  0.00    -0.463 OA
ENDBRANCH   6   7
BRANCH   6  12
ATOM     12  N   UNL     1      51.036  50.163  18.202  1.00  0.00    -0.325 N 
ATOM     13  C   UNL     1      50.256  49.565  19.348  1.00  0.00    +0.263 C 
ATOM     14  C   UNL     1      52.359  50.630  18.759  1.00  0.00    +0.263 C 
ATOM     15  C   UNL     1      51.262  49.428  20.484  1.00  0.00    +0.067 C 
ATOM     16  C   UNL     1      52.623  49.588  19.828  1.00  0.00    +0.067 C 
ATOM     17  H   UNL     1      51.278  49.384  17.574  1.00  0.00    +0.348 HD
ENDBRANCH   6  12
ENDBRANCH   5   6
ENDBRANCH   1   5
BRANCH   2  18
ATOM     18  C   UNL     1      49.753  55.231  19.626  1.00  0.00    +0.313 C 
ATOM     19  O   UNL     1      50.743  55.854  19.984  1.00  0.00    -0.263 OA
ATOM     20  N   UNL     1      48.498  55.671  19.279  1.00  0.00    -0.318 N 
ATOM     21  H   UNL     1      47.850  54.954  18.957  1.00  0.00    +0.170 HD
BRANCH  20  22
ATOM     22  C   UNL     1      48.057  57.005  19.210  1.00  0.00    +0.041 A 
ATOM     23  C   UNL     1      47.851  57.810  20.325  1.00  0.00    +0.028 A 
ATOM     24  C   UNL     1      47.837  57.550  17.946  1.00  0.00    +0.028 A 
ATOM     25  C   UNL     1      47.444  59.144  20.170  1.00  0.00    +0.028 A 
ATOM     26  C   UNL     1      47.446  58.890  17.805  1.00  0.00    +0.028 A 
ATOM     27  C   UNL     1      47.242  59.728  18.910  1.00  0.00    +0.037 A 
BRANCH  27  28
ATOM     28  N   UNL     1      46.862  61.039  18.773  1.00  0.00    -0.372 N 
ATOM     29  C   UNL     1      45.713  61.641  19.445  1.00  0.00    +0.116 C 
ATOM     30  C   UNL     1      47.585  62.032  17.971  1.00  0.00    +0.116 C 
ATOM     31  C   UNL     1      45.881  63.140  19.205  1.00  0.00    +0.023 C 
ATOM     32  C   UNL     1      46.613  63.202  17.875  1.00  0.00    +0.023 C 
ENDBRANCH  27  28
ENDBRANCH  20  22
ENDBRANCH   2  18
TORSDOF 7
ENDMDL
