MODEL 1
REMARK VINA RESULT:    -7.019      0.000      0.000
REMARK INTER + INTRA:          -7.947
REMARK INTER:                  -8.045
REMARK INTRA:                   0.098
REMARK UNBOUND:                 0.098
REMARK SMILES C[C@@H]1CCC[C@](NC(=O)N2CCC([NH3+])CC2)(C(=O)[O-])C1
REMARK SMILES IDX 7 1 8 2 9 3 10 4 11 5 12 6 13 7 15 8 16 9 6 11 2 12 3 13
REMARK SMILES IDX 20 14 4 15 5 16 1 17 17 18 18 19 19 20 14 21
REMARK H PARENT 7 10 14 22 14 23 14 24
ROOT
ATOM      1  N   UNL     1      49.801  51.082  19.214  1.00  0.00    -0.327 N 
ATOM      2  C   UNL     1      49.474  49.754  19.019  1.00  0.00    +0.318 C 
ATOM      3  O   UNL     1      50.115  48.824  19.498  1.00  0.00    -0.249 OA
ATOM      4  N   UNL     1      48.455  49.512  18.063  1.00  0.00    -0.324 N 
ATOM      5  C   UNL     1      47.796  50.563  17.290  1.00  0.00    +0.127 C 
ATOM      6  C   UNL     1      48.684  50.953  16.101  1.00  0.00    +0.086 C 
ATOM      7  C   UNL     1      49.894  50.013  16.037  1.00  0.00    +0.184 C 
ATOM      8  C   UNL     1      49.457  48.557  15.984  1.00  0.00    +0.086 C 
ATOM      9  C   UNL     1      48.623  48.272  17.274  1.00  0.00    +0.127 C 
ATOM     10  H   UNL     1      49.198  51.762  18.791  1.00  0.00    +0.166 HD
ENDROOT
BRANCH   1  11
ATOM     11  C   UNL     1      51.236  51.596  19.266  1.00  0.00    +0.082 C 
ATOM     12  C   UNL     1      50.928  54.189  19.073  1.00  0.00    -0.012 C 
ATOM     13  C   UNL     1      50.149  53.959  20.370  1.00  0.00    +0.003 C 
ATOM     14  C   UNL     1      51.333  52.869  18.377  1.00  0.00    +0.038 C 
ATOM     15  C   UNL     1      50.868  53.038  21.355  1.00  0.00    +0.003 C 
ATOM     16  C   UNL     1      51.710  51.950  20.682  1.00  0.00    +0.035 C 
ATOM     17  C   UNL     1      52.149  55.084  19.316  1.00  0.00    +0.008 C 
BRANCH  11  18
ATOM     18  C   UNL     1      52.234  50.565  18.577  1.00  0.00    +0.067 C 
ATOM     19  O   UNL     1      52.607  50.764  17.387  1.00  0.00    -0.548 OA
ATOM     20  O   UNL     1      52.799  49.717  19.352  1.00  0.00    -0.548 OA
ENDBRANCH  11  18
ENDBRANCH   1  11
BRANCH   7  21
ATOM     21  N   UNL     1      50.887  50.473  15.070  1.00  0.00    -0.355 N 
ATOM     22  H   UNL     1      50.828  50.150  14.108  1.00  0.00    +0.344 HD
ATOM     23  H   UNL     1      50.775  51.524  15.090  1.00  0.00    +0.344 HD
ATOM     24  H   UNL     1      51.837  50.396  15.463  1.00  0.00    +0.344 HD
ENDBRANCH   7  21
TORSDOF 3
ENDMDL
MODEL 2
REMARK VINA RESULT:    -6.967      1.688      5.264
REMARK INTER + INTRA:          -7.887
REMARK INTER:                  -7.816
REMARK INTRA:                  -0.071
REMARK UNBOUND:                 0.098
REMARK SMILES C[C@@H]1CCC[C@](NC(=O)N2CCC([NH3+])CC2)(C(=O)[O-])C1
REMARK SMILES IDX 7 1 8 2 9 3 10 4 11 5 12 6 13 7 15 8 16 9 6 11 2 12 3 13
REMARK SMILES IDX 20 14 4 15 5 16 1 17 17 18 18 19 19 20 14 21
REMARK H PARENT 7 10 14 22 14 23 14 24
ROOT
ATOM      1  N   UNL     1      50.815  52.493  17.968  1.00  0.00    -0.327 N 
ATOM      2  C   UNL     1      51.788  53.382  18.383  1.00  0.00    +0.318 C 
ATOM      3  O   UNL     1      52.991  53.167  18.271  1.00  0.00    -0.249 OA
ATOM      4  N   UNL     1      51.319  54.491  19.132  1.00  0.00    -0.324 N 
ATOM      5  C   UNL     1      49.918  54.699  19.492  1.00  0.00    +0.127 C 
ATOM      6  C   UNL     1      49.577  53.847  20.722  1.00  0.00    +0.086 C 
ATOM      7  C   UNL     1      50.852  53.178  21.249  1.00  0.00    +0.184 C 
ATOM      8  C   UNL     1      51.935  54.207  21.536  1.00  0.00    +0.086 C 
ATOM      9  C   UNL     1      52.235  54.955  20.197  1.00  0.00    +0.127 C 
ATOM     10  H   UNL     1      49.862  52.778  18.090  1.00  0.00    +0.166 HD
ENDROOT
BRANCH   1  11
ATOM     11  C   UNL     1      50.944  50.980  18.105  1.00  0.00    +0.082 C 
ATOM     12  C   UNL     1      48.449  50.195  18.216  1.00  0.00    -0.012 C 
ATOM     13  C   UNL     1      48.427  50.839  16.829  1.00  0.00    +0.003 C 
ATOM     14  C   UNL     1      49.766  50.465  18.980  1.00  0.00    +0.038 C 
ATOM     15  C   UNL     1      49.629  50.461  15.965  1.00  0.00    +0.003 C 
ATOM     16  C   UNL     1      50.918  50.238  16.761  1.00  0.00    +0.035 C 
ATOM     17  C   UNL     1      48.157  48.692  18.130  1.00  0.00    +0.008 C 
BRANCH  11  18
ATOM     18  C   UNL     1      52.245  50.594  18.939  1.00  0.00    +0.067 C 
ATOM     19  O   UNL     1      52.177  50.532  20.198  1.00  0.00    -0.548 OA
ATOM     20  O   UNL     1      53.230  50.128  18.269  1.00  0.00    -0.548 OA
ENDBRANCH  11  18
ENDBRANCH   1  11
BRANCH   7  21
ATOM     21  N   UNL     1      50.557  52.181  22.276  1.00  0.00    -0.355 N 
ATOM     22  H   UNL     1      49.902  51.433  22.065  1.00  0.00    +0.344 HD
ATOM     23  H   UNL     1      51.504  51.762  22.485  1.00  0.00    +0.344 HD
ATOM     24  H   UNL     1      50.369  52.638  23.180  1.00  0.00    +0.344 HD
ENDBRANCH   7  21
TORSDOF 3
ENDMDL
MODEL 3
REMARK VINA RESULT:    -6.793      2.027      5.423
REMARK INTER + INTRA:          -7.689
REMARK INTER:                  -8.139
REMARK INTRA:                   0.450
REMARK UNBOUND:                 0.098
REMARK SMILES C[C@@H]1CCC[C@](NC(=O)N2CCC([NH3+])CC2)(C(=O)[O-])C1
REMARK SMILES IDX 7 1 8 2 9 3 10 4 11 5 12 6 13 7 15 8 16 9 6 11 2 12 3 13
REMARK SMILES IDX 20 14 4 15 5 16 1 17 17 18 18 19 19 20 14 21
REMARK H PARENT 7 10 14 22 14 23 14 24
ROOT
ATOM      1  N   UNL     1      49.777  49.653  17.597  1.00  0.00    -0.327 N 
ATOM      2  C   UNL     1      50.051  49.506  18.943  1.00  0.00    +0.318 C 
ATOM      3  O   UNL     1      49.254  49.034  19.747  1.00  0.00    -0.249 OA
ATOM      4  N   UNL     1      51.252  50.115  19.390  1.00  0.00    -0.324 N 
ATOM      5  C   UNL     1      52.146  50.884  18.527  1.00  0.00    +0.127 C 
ATOM      6  C   UNL     1      51.598  52.308  18.366  1.00  0.00    +0.086 C 
ATOM      7  C   UNL     1      50.378  52.491  19.277  1.00  0.00    +0.184 C 
ATOM      8  C   UNL     1      50.716  52.159  20.722  1.00  0.00    +0.086 C 
ATOM      9  C   UNL     1      51.195  50.672  20.759  1.00  0.00    +0.127 C 
ATOM     10  H   UNL     1      50.508  50.033  17.026  1.00  0.00    +0.166 HD
ENDROOT
BRANCH   1  11
ATOM     11  C   UNL     1      48.410  50.058  17.056  1.00  0.00    +0.082 C 
ATOM     12  C   UNL     1      47.882  48.157  15.336  1.00  0.00    -0.012 C 
ATOM     13  C   UNL     1      47.984  47.302  16.602  1.00  0.00    +0.003 C 
ATOM     14  C   UNL     1      48.323  49.621  15.566  1.00  0.00    +0.038 C 
ATOM     15  C   UNL     1      47.242  47.898  17.797  1.00  0.00    +0.003 C 
ATOM     16  C   UNL     1      47.237  49.429  17.821  1.00  0.00    +0.035 C 
ATOM     17  C   UNL     1      46.472  48.090  14.738  1.00  0.00    +0.008 C 
BRANCH  11  18
ATOM     18  C   UNL     1      48.267  51.643  17.004  1.00  0.00    +0.067 C 
ATOM     19  O   UNL     1      48.960  52.301  16.179  1.00  0.00    -0.548 OA
ATOM     20  O   UNL     1      47.273  52.144  17.637  1.00  0.00    -0.548 OA
ENDBRANCH  11  18
ENDBRANCH   1  11
BRANCH   7  21
ATOM     21  N   UNL     1      49.679  53.745  19.001  1.00  0.00    -0.355 N 
ATOM     22  H   UNL     1      49.026  54.109  19.690  1.00  0.00    +0.344 HD
ATOM     23  H   UNL     1      50.467  54.437  18.872  1.00  0.00    +0.344 HD
ATOM     24  H   UNL     1      49.297  53.742  18.044  1.00  0.00    +0.344 HD
ENDBRANCH   7  21
TORSDOF 3
ENDMDL
MODEL 4
REMARK VINA RESULT:    -6.700      2.105      5.254
REMARK INTER + INTRA:          -7.582
REMARK INTER:                  -7.715
REMARK INTRA:                   0.133
REMARK UNBOUND:                 0.098
REMARK SMILES C[C@@H]1CCC[C@](NC(=O)N2CCC([NH3+])CC2)(C(=O)[O-])C1
REMARK SMILES IDX 7 1 8 2 9 3 10 4 11 5 12 6 13 7 15 8 16 9 6 11 2 12 3 13
REMARK SMILES IDX 20 14 4 15 5 16 1 17 17 18 18 19 19 20 14 21
REMARK H PARENT 7 10 14 22 14 23 14 24
ROOT
ATOM      1  N   UNL     1      48.841  50.709  18.465  1.00  0.00    -0.327 N 
ATOM      2  C   UNL     1      49.343  51.980  18.665  1.00  0.00    +0.318 C 
ATOM      3  O   UNL     1      48.967  52.962  18.033  1.00  0.00    -0.249 OA
ATOM      4  N   UNL     1      50.471  52.062  19.520  1.00  0.00    -0.324 N 
ATOM      5  C   UNL     1      51.111  50.903  20.139  1.00  0.00    +0.127 C 
ATOM      6  C   UNL     1      52.050  50.237  19.124  1.00  0.00    +0.086 C 
ATOM      7  C   UNL     1      52.115  51.092  17.852  1.00  0.00    +0.184 C 
ATOM      8  C   UNL     1      52.522  52.522  18.171  1.00  0.00    +0.086 C 
ATOM      9  C   UNL     1      51.457  53.103  19.155  1.00  0.00    +0.127 C 
ATOM     10  H   UNL     1      49.207  49.982  19.051  1.00  0.00    +0.166 HD
ENDROOT
BRANCH   1  11
ATOM     11  C   UNL     1      48.471  50.157  17.093  1.00  0.00    +0.082 C 
ATOM     12  C   UNL     1      48.052  47.620  17.584  1.00  0.00    -0.012 C 
ATOM     13  C   UNL     1      46.970  48.212  18.489  1.00  0.00    +0.003 C 
ATOM     14  C   UNL     1      48.994  48.696  16.995  1.00  0.00    +0.038 C 
ATOM     15  C   UNL     1      46.158  49.319  17.819  1.00  0.00    +0.003 C 
ATOM     16  C   UNL     1      46.960  50.156  16.819  1.00  0.00    +0.035 C 
ATOM     17  C   UNL     1      47.434  46.759  16.477  1.00  0.00    +0.008 C 
BRANCH  11  18
ATOM     18  C   UNL     1      49.254  50.928  15.941  1.00  0.00    +0.067 C 
ATOM     19  O   UNL     1      50.274  50.393  15.421  1.00  0.00    -0.548 OA
ATOM     20  O   UNL     1      48.662  51.943  15.433  1.00  0.00    -0.548 OA
ENDBRANCH  11  18
ENDBRANCH   1  11
BRANCH   7  21
ATOM     21  N   UNL     1      52.810  50.400  16.769  1.00  0.00    -0.355 N 
ATOM     22  H   UNL     1      52.270  50.033  15.989  1.00  0.00    +0.344 HD
ATOM     23  H   UNL     1      53.483  51.130  16.410  1.00  0.00    +0.344 HD
ATOM     24  H   UNL     1      53.483  49.719  17.149  1.00  0.00    +0.344 HD
ENDBRANCH   7  21
TORSDOF 3
ENDMDL
MODEL 5
REMARK VINA RESULT:    -6.666      2.295      3.813
REMARK INTER + INTRA:          -7.543
REMARK INTER:                  -7.820
REMARK INTRA:                   0.277
REMARK UNBOUND:                 0.098
REMARK SMILES C[C@@H]1CCC[C@](NC(=O)N2CCC([NH3+])CC2)(C(=O)[O-])C1
REMARK SMILES IDX 7 1 8 2 9 3 10 4 11 5 12 6 13 7 15 8 16 9 6 11 2 12 3 13
REMARK SMILES IDX 20 14 4 15 5 16 1 17 17 18 18 19 19 20 14 21
REMARK H PARENT 7 10 14 22 14 23 14 24
ROOT
ATOM      1  N   UNL     1      51.286  53.241  19.120  1.00  0.00    -0.327 N 
ATOM      2  C   UNL     1      50.372  52.496  18.400  1.00  0.00    +0.318 C 
ATOM      3  O   UNL     1      49.173  52.751  18.362  1.00  0.00    -0.249 OA
ATOM      4  N   UNL     1      50.870  51.286  17.853  1.00  0.00    -0.324 N 
ATOM      5  C   UNL     1      52.238  50.807  18.043  1.00  0.00    +0.127 C 
ATOM      6  C   UNL     1      52.352  50.122  19.411  1.00  0.00    +0.086 C 
ATOM      7  C   UNL     1      50.964  50.039  20.057  1.00  0.00    +0.184 C 
ATOM      8  C   UNL     1      49.970  49.343  19.139  1.00  0.00    +0.086 C 
ATOM      9  C   UNL     1      49.898  50.171  17.816  1.00  0.00    +0.127 C 
ATOM     10  H   UNL     1      52.245  52.955  19.066  1.00  0.00    +0.166 HD
ENDROOT
BRANCH   1  11
ATOM     11  C   UNL     1      50.984  53.853  20.484  1.00  0.00    +0.082 C 
ATOM     12  C   UNL     1      51.878  56.300  20.231  1.00  0.00    -0.012 C 
ATOM     13  C   UNL     1      50.817  56.326  19.129  1.00  0.00    +0.003 C 
ATOM     14  C   UNL     1      52.099  54.885  20.815  1.00  0.00    +0.038 C 
ATOM     15  C   UNL     1      49.484  55.714  19.555  1.00  0.00    +0.003 C 
ATOM     16  C   UNL     1      49.624  54.560  20.552  1.00  0.00    +0.035 C 
ATOM     17  C   UNL     1      51.549  57.311  21.337  1.00  0.00    +0.008 C 
BRANCH  11  18
ATOM     18  C   UNL     1      51.112  52.760  21.636  1.00  0.00    +0.067 C 
ATOM     19  O   UNL     1      52.258  52.386  22.010  1.00  0.00    -0.548 OA
ATOM     20  O   UNL     1      50.044  52.501  22.292  1.00  0.00    -0.548 OA
ENDBRANCH  11  18
ENDBRANCH   1  11
BRANCH   7  21
ATOM     21  N   UNL     1      51.040  49.604  21.450  1.00  0.00    -0.355 N 
ATOM     22  H   UNL     1      51.753  48.932  21.721  1.00  0.00    +0.344 HD
ATOM     23  H   UNL     1      51.197  50.507  21.976  1.00  0.00    +0.344 HD
ATOM     24  H   UNL     1      50.103  49.362  21.805  1.00  0.00    +0.344 HD
ENDBRANCH   7  21
TORSDOF 3
ENDMDL
