MODEL 1
REMARK VINA RESULT:    -7.505      0.000      0.000
REMARK INTER + INTRA:          -8.499
REMARK INTER:                  -8.382
REMARK INTRA:                  -0.116
REMARK UNBOUND:                -0.116
REMARK SMILES C[C@@H]1CCC[C@@](NC(=O)N2CC[NH2+]CC2)(C(=O)[O-])C1
REMARK SMILES IDX 1 1 2 2 3 3 4 4 5 5 6 6 19 7 16 8 17 9 18 10 7 11 8 12 9 13
REMARK SMILES IDX 10 14 11 15 15 16 12 17 14 18 13 19
REMARK H PARENT 7 20 13 21 13 22
ROOT
ATOM      1  C   UNL     1      48.677  57.601  21.382  1.00  0.00    +0.008 C 
ATOM      2  C   UNL     1      49.944  56.747  21.341  1.00  0.00    -0.012 C 
ATOM      3  C   UNL     1      51.169  57.620  21.067  1.00  0.00    +0.003 C 
ATOM      4  C   UNL     1      52.440  56.785  21.023  1.00  0.00    +0.003 C 
ATOM      5  C   UNL     1      52.353  55.633  20.021  1.00  0.00    +0.035 C 
ATOM      6  C   UNL     1      51.080  54.767  20.117  1.00  0.00    +0.082 C 
ATOM      7  C   UNL     1      49.821  55.652  20.273  1.00  0.00    +0.038 C 
ENDROOT
BRANCH   6   8
ATOM      8  C   UNL     1      51.063  53.789  21.373  1.00  0.00    +0.067 C 
ATOM      9  O   UNL     1      50.104  52.993  21.509  1.00  0.00    -0.548 OA
ATOM     10  O   UNL     1      52.035  53.956  22.192  1.00  0.00    -0.548 OA
ENDBRANCH   6   8
BRANCH   6  11
ATOM     11  N   UNL     1      50.900  53.977  18.843  1.00  0.00    -0.327 N 
ATOM     12  C   UNL     1      51.843  53.052  18.493  1.00  0.00    +0.318 C 
ATOM     13  O   UNL     1      53.050  53.265  18.578  1.00  0.00    -0.249 OA
ATOM     14  N   UNL     1      51.362  51.787  18.138  1.00  0.00    -0.314 N 
ATOM     15  C   UNL     1      50.040  51.263  18.543  1.00  0.00    +0.182 C 
ATOM     16  C   UNL     1      52.400  50.757  18.173  1.00  0.00    +0.182 C 
ATOM     17  C   UNL     1      50.145  50.212  19.681  1.00  0.00    +0.282 C 
ATOM     18  C   UNL     1      52.676  50.352  19.641  1.00  0.00    +0.282 C 
ATOM     19  N   UNL     1      51.410  50.399  20.447  1.00  0.00    -0.343 N 
ATOM     20  H   UNL     1      49.947  53.779  18.606  1.00  0.00    +0.166 HD
ATOM     21  H   UNL     1      51.303  51.394  20.809  1.00  0.00    +0.346 HD
ATOM     22  H   UNL     1      51.456  49.878  21.325  1.00  0.00    +0.346 HD
ENDBRANCH   6  11
TORSDOF 2
ENDMDL
MODEL 2
REMARK VINA RESULT:    -6.934      3.070      6.183
REMARK INTER + INTRA:          -7.861
REMARK INTER:                  -7.552
REMARK INTRA:                  -0.309
REMARK UNBOUND:                -0.116
REMARK SMILES C[C@@H]1CCC[C@@](NC(=O)N2CC[NH2+]CC2)(C(=O)[O-])C1
REMARK SMILES IDX 1 1 2 2 3 3 4 4 5 5 6 6 19 7 16 8 17 9 18 10 7 11 8 12 9 13
REMARK SMILES IDX 10 14 11 15 15 16 12 17 14 18 13 19
REMARK H PARENT 7 20 13 21 13 22
ROOT
ATOM      1  C   UNL     1      45.306  48.927  17.629  1.00  0.00    +0.008 C 
ATOM      2  C   UNL     1      46.521  49.560  16.953  1.00  0.00    -0.012 C 
ATOM      3  C   UNL     1      46.915  48.766  15.707  1.00  0.00    +0.003 C 
ATOM      4  C   UNL     1      48.124  49.384  15.022  1.00  0.00    +0.003 C 
ATOM      5  C   UNL     1      49.316  49.549  15.966  1.00  0.00    +0.035 C 
ATOM      6  C   UNL     1      49.000  50.217  17.319  1.00  0.00    +0.082 C 
ATOM      7  C   UNL     1      47.702  49.638  17.930  1.00  0.00    +0.038 C 
ENDROOT
BRANCH   6   8
ATOM      8  C   UNL     1      48.753  51.786  17.219  1.00  0.00    +0.067 C 
ATOM      9  O   UNL     1      48.406  52.413  18.248  1.00  0.00    -0.548 OA
ATOM     10  O   UNL     1      48.875  52.271  16.038  1.00  0.00    -0.548 OA
ENDBRANCH   6   8
BRANCH   6  11
ATOM     11  N   UNL     1      50.108  49.929  18.304  1.00  0.00    -0.327 N 
ATOM     12  C   UNL     1      51.266  50.651  18.234  1.00  0.00    +0.318 C 
ATOM     13  O   UNL     1      51.830  50.908  17.174  1.00  0.00    -0.249 OA
ATOM     14  N   UNL     1      51.725  51.195  19.439  1.00  0.00    -0.314 N 
ATOM     15  C   UNL     1      50.865  51.438  20.617  1.00  0.00    +0.182 C 
ATOM     16  C   UNL     1      52.705  52.264  19.240  1.00  0.00    +0.182 C 
ATOM     17  C   UNL     1      50.519  52.941  20.796  1.00  0.00    +0.282 C 
ATOM     18  C   UNL     1      51.974  53.561  18.815  1.00  0.00    +0.282 C 
ATOM     19  N   UNL     1      50.641  53.661  19.497  1.00  0.00    -0.343 N 
ATOM     20  H   UNL     1      49.796  49.641  19.212  1.00  0.00    +0.166 HD
ATOM     21  H   UNL     1      49.937  53.142  18.891  1.00  0.00    +0.346 HD
ATOM     22  H   UNL     1      50.242  54.602  19.494  1.00  0.00    +0.346 HD
ENDBRANCH   6  11
TORSDOF 2
ENDMDL
MODEL 3
REMARK VINA RESULT:    -6.755      1.718      5.484
REMARK INTER + INTRA:          -7.662
REMARK INTER:                  -7.285
REMARK INTRA:                  -0.377
REMARK UNBOUND:                -0.116
REMARK SMILES C[C@@H]1CCC[C@@](NC(=O)N2CC[NH2+]CC2)(C(=O)[O-])C1
REMARK SMILES IDX 1 1 2 2 3 3 4 4 5 5 6 6 19 7 16 8 17 9 18 10 7 11 8 12 9 13
REMARK SMILES IDX 10 14 11 15 15 16 12 17 14 18 13 19
REMARK H PARENT 7 20 13 21 13 22
ROOT
ATOM      1  C   UNL     1      48.923  49.883  17.411  1.00  0.00    +0.008 C 
ATOM      2  C   UNL     1      50.067  50.261  18.352  1.00  0.00    -0.012 C 
ATOM      3  C   UNL     1      50.323  49.140  19.360  1.00  0.00    +0.003 C 
ATOM      4  C   UNL     1      51.460  49.501  20.304  1.00  0.00    +0.003 C 
ATOM      5  C   UNL     1      51.233  50.836  21.015  1.00  0.00    +0.035 C 
ATOM      6  C   UNL     1      50.830  52.011  20.102  1.00  0.00    +0.082 C 
ATOM      7  C   UNL     1      49.752  51.573  19.083  1.00  0.00    +0.038 C 
ENDROOT
BRANCH   6   8
ATOM      8  C   UNL     1      52.028  52.584  19.225  1.00  0.00    +0.067 C 
ATOM      9  O   UNL     1      51.769  53.373  18.286  1.00  0.00    -0.548 OA
ATOM     10  O   UNL     1      53.183  52.120  19.532  1.00  0.00    -0.548 OA
ENDBRANCH   6   8
BRANCH   6  11
ATOM     11  N   UNL     1      50.219  53.117  20.930  1.00  0.00    -0.327 N 
ATOM     12  C   UNL     1      51.037  54.047  21.506  1.00  0.00    +0.318 C 
ATOM     13  O   UNL     1      52.085  53.754  22.076  1.00  0.00    -0.249 OA
ATOM     14  N   UNL     1      50.679  55.386  21.313  1.00  0.00    -0.314 N 
ATOM     15  C   UNL     1      49.814  55.858  20.209  1.00  0.00    +0.182 C 
ATOM     16  C   UNL     1      51.777  56.312  21.590  1.00  0.00    +0.182 C 
ATOM     17  C   UNL     1      50.622  56.566  19.088  1.00  0.00    +0.282 C 
ATOM     18  C   UNL     1      52.772  56.301  20.404  1.00  0.00    +0.282 C 
ATOM     19  N   UNL     1      52.042  56.114  19.106  1.00  0.00    -0.343 N 
ATOM     20  H   UNL     1      49.317  53.423  20.618  1.00  0.00    +0.166 HD
ATOM     21  H   UNL     1      51.942  55.066  18.948  1.00  0.00    +0.346 HD
ATOM     22  H   UNL     1      52.584  56.383  18.281  1.00  0.00    +0.346 HD
ENDBRANCH   6  11
TORSDOF 2
ENDMDL
MODEL 4
REMARK VINA RESULT:    -6.635      3.305      5.864
REMARK INTER + INTRA:          -7.527
REMARK INTER:                  -7.953
REMARK INTRA:                   0.426
REMARK UNBOUND:                -0.116
REMARK SMILES C[C@@H]1CCC[C@@](NC(=O)N2CC[NH2+]CC2)(C(=O)[O-])C1
REMARK SMILES IDX 1 1 2 2 3 3 4 4 5 5 6 6 19 7 16 8 17 9 18 10 7 11 8 12 9 13
REMARK SMILES IDX 10 14 11 15 15 16 12 17 14 18 13 19
REMARK H PARENT 7 20 13 21 13 22
ROOT
ATOM      1  C   UNL     1      47.306  48.472  18.997  1.00  0.00    +0.008 C 
ATOM      2  C   UNL     1      47.602  49.376  17.800  1.00  0.00    -0.012 C 
ATOM      3  C   UNL     1      47.934  48.538  16.566  1.00  0.00    +0.003 C 
ATOM      4  C   UNL     1      48.232  49.424  15.365  1.00  0.00    +0.003 C 
ATOM      5  C   UNL     1      49.335  50.445  15.646  1.00  0.00    +0.035 C 
ATOM      6  C   UNL     1      49.171  51.254  16.949  1.00  0.00    +0.082 C 
ATOM      7  C   UNL     1      48.759  50.332  18.122  1.00  0.00    +0.038 C 
ENDROOT
BRANCH   6   8
ATOM      8  C   UNL     1      48.038  52.369  16.875  1.00  0.00    +0.067 C 
ATOM      9  O   UNL     1      46.907  52.119  17.354  1.00  0.00    -0.548 OA
ATOM     10  O   UNL     1      48.380  53.436  16.251  1.00  0.00    -0.548 OA
ENDBRANCH   6   8
BRANCH   6  11
ATOM     11  N   UNL     1      50.490  51.880  17.334  1.00  0.00    -0.327 N 
ATOM     12  C   UNL     1      50.673  52.314  18.616  1.00  0.00    +0.318 C 
ATOM     13  O   UNL     1      49.820  52.943  19.236  1.00  0.00    -0.249 OA
ATOM     14  N   UNL     1      51.853  51.900  19.244  1.00  0.00    -0.314 N 
ATOM     15  C   UNL     1      52.639  50.718  18.827  1.00  0.00    +0.182 C 
ATOM     16  C   UNL     1      51.802  52.045  20.699  1.00  0.00    +0.182 C 
ATOM     17  C   UNL     1      52.447  49.513  19.787  1.00  0.00    +0.282 C 
ATOM     18  C   UNL     1      50.957  50.896  21.302  1.00  0.00    +0.282 C 
ATOM     19  N   UNL     1      51.154  49.631  20.517  1.00  0.00    -0.343 N 
ATOM     20  H   UNL     1      51.286  51.505  16.854  1.00  0.00    +0.166 HD
ATOM     21  H   UNL     1      50.450  49.643  19.719  1.00  0.00    +0.346 HD
ATOM     22  H   UNL     1      50.868  48.784  21.015  1.00  0.00    +0.346 HD
ENDBRANCH   6  11
TORSDOF 2
ENDMDL
MODEL 5
REMARK VINA RESULT:    -6.426      1.504      2.930
REMARK INTER + INTRA:          -7.294
REMARK INTER:                  -7.413
REMARK INTRA:                   0.119
REMARK UNBOUND:                -0.116
REMARK SMILES C[C@@H]1CCC[C@@](NC(=O)N2CC[NH2+]CC2)(C(=O)[O-])C1
REMARK SMILES IDX 1 1 2 2 3 3 4 4 5 5 6 6 19 7 16 8 17 9 18 10 7 11 8 12 9 13
REMARK SMILES IDX 10 14 11 15 15 16 12 17 14 18 13 19
REMARK H PARENT 7 20 13 21 13 22
ROOT
ATOM      1  C   UNL     1      49.173  57.906  22.187  1.00  0.00    +0.008 C 
ATOM      2  C   UNL     1      49.688  57.018  21.054  1.00  0.00    -0.012 C 
ATOM      3  C   UNL     1      48.523  56.333  20.339  1.00  0.00    +0.003 C 
ATOM      4  C   UNL     1      49.019  55.445  19.208  1.00  0.00    +0.003 C 
ATOM      5  C   UNL     1      50.054  54.421  19.674  1.00  0.00    +0.035 C 
ATOM      6  C   UNL     1      51.207  54.987  20.528  1.00  0.00    +0.082 C 
ATOM      7  C   UNL     1      50.671  55.971  21.594  1.00  0.00    +0.038 C 
ENDROOT
BRANCH   6   8
ATOM      8  C   UNL     1      52.278  55.816  19.692  1.00  0.00    +0.067 C 
ATOM      9  O   UNL     1      52.109  55.956  18.458  1.00  0.00    -0.548 OA
ATOM     10  O   UNL     1      53.284  56.227  20.373  1.00  0.00    -0.548 OA
ENDBRANCH   6   8
BRANCH   6  11
ATOM     11  N   UNL     1      51.889  53.866  21.276  1.00  0.00    -0.327 N 
ATOM     12  C   UNL     1      51.198  52.713  21.522  1.00  0.00    +0.318 C 
ATOM     13  O   UNL     1      50.033  52.703  21.910  1.00  0.00    -0.249 OA
ATOM     14  N   UNL     1      51.854  51.521  21.196  1.00  0.00    -0.314 N 
ATOM     15  C   UNL     1      52.968  51.431  20.227  1.00  0.00    +0.182 C 
ATOM     16  C   UNL     1      50.942  50.381  21.098  1.00  0.00    +0.182 C 
ATOM     17  C   UNL     1      52.522  50.823  18.869  1.00  0.00    +0.282 C 
ATOM     18  C   UNL     1      50.176  50.448  19.754  1.00  0.00    +0.282 C 
ATOM     19  N   UNL     1      51.056  51.007  18.674  1.00  0.00    -0.343 N 
ATOM     20  H   UNL     1      52.873  53.789  21.106  1.00  0.00    +0.166 HD
ATOM     21  H   UNL     1      50.961  52.067  18.707  1.00  0.00    +0.346 HD
ATOM     22  H   UNL     1      50.725  50.813  17.726  1.00  0.00    +0.346 HD
ENDBRANCH   6  11
TORSDOF 2
ENDMDL
