MODEL 1
REMARK VINA RESULT:    -7.401      0.000      0.000
REMARK INTER + INTRA:         -10.176
REMARK INTER:                  -9.565
REMARK INTRA:                  -0.612
REMARK UNBOUND:                -0.612
REMARK SMILES CCNC(=O)Nc1ccccc1OC[C@@H]1CCCCO1
REMARK SMILES IDX 7 1 8 2 9 3 10 4 11 5 12 6 6 7 3 8 4 9 5 10 2 13 1 14 13 15
REMARK SMILES IDX 14 16 15 17 16 18 20 19 17 20 19 21 18 22
REMARK H PARENT 3 11 6 12
ROOT
ATOM      1  C   UNL     1      50.976  51.989  19.188  1.00  0.00    +0.085 A 
ATOM      2  C   UNL     1      51.808  51.217  19.998  1.00  0.00    +0.030 A 
ATOM      3  C   UNL     1      51.998  51.557  21.343  1.00  0.00    +0.002 A 
ATOM      4  C   UNL     1      51.366  52.676  21.883  1.00  0.00    +0.004 A 
ATOM      5  C   UNL     1      50.534  53.459  21.084  1.00  0.00    +0.048 A 
ATOM      6  C   UNL     1      50.323  53.101  19.750  1.00  0.00    +0.143 A 
ENDROOT
BRANCH   1   7
ATOM      7  N   UNL     1      50.749  51.730  17.819  1.00  0.00    -0.305 N 
ATOM      8  N   UNL     1      50.175  50.722  15.870  1.00  0.00    -0.338 N 
ATOM      9  C   UNL     1      50.130  50.643  17.249  1.00  0.00    +0.319 C 
ATOM     10  O   UNL     1      49.589  49.717  17.837  1.00  0.00    -0.249 OA
ATOM     11  H   UNL     1      50.939  51.253  15.482  1.00  0.00    +0.165 HD
ATOM     12  H   UNL     1      50.986  52.496  17.204  1.00  0.00    +0.172 HD
BRANCH   8  13
ATOM     13  C   UNL     1      49.638  49.656  15.046  1.00  0.00    +0.114 C 
ATOM     14  C   UNL     1      48.255  49.988  14.514  1.00  0.00    +0.027 C 
ENDBRANCH   8  13
ENDBRANCH   1   7
BRANCH   6  15
ATOM     15  O   UNL     1      49.527  53.869  18.931  1.00  0.00    -0.489 OA
BRANCH  15  16
ATOM     16  C   UNL     1      48.831  54.881  19.671  1.00  0.00    +0.261 C 
BRANCH  16  17
ATOM     17  C   UNL     1      49.345  56.270  19.249  1.00  0.00    +0.155 C 
ATOM     18  C   UNL     1      49.918  57.079  20.422  1.00  0.00    +0.036 C 
ATOM     19  O   UNL     1      48.295  56.945  18.542  1.00  0.00    -0.375 OA
ATOM     20  C   UNL     1      48.826  57.558  21.376  1.00  0.00    +0.005 C 
ATOM     21  C   UNL     1      47.809  58.144  19.147  1.00  0.00    +0.160 C 
ATOM     22  C   UNL     1      47.551  57.956  20.633  1.00  0.00    +0.029 C 
ENDBRANCH  16  17
ENDBRANCH  15  16
ENDBRANCH   6  15
TORSDOF 5
ENDMDL
MODEL 2
REMARK VINA RESULT:    -7.091      3.151      5.844
REMARK INTER + INTRA:          -9.775
REMARK INTER:                  -9.036
REMARK INTRA:                  -0.739
REMARK UNBOUND:                -0.612
REMARK SMILES CCNC(=O)Nc1ccccc1OC[C@@H]1CCCCO1
REMARK SMILES IDX 7 1 8 2 9 3 10 4 11 5 12 6 6 7 3 8 4 9 5 10 2 13 1 14 13 15
REMARK SMILES IDX 14 16 15 17 16 18 20 19 17 20 19 21 18 22
REMARK H PARENT 3 11 6 12
ROOT
ATOM      1  C   UNL     1      48.970  56.763  19.235  1.00  0.00    +0.085 A 
ATOM      2  C   UNL     1      48.022  57.329  20.087  1.00  0.00    +0.030 A 
ATOM      3  C   UNL     1      48.388  57.744  21.374  1.00  0.00    +0.002 A 
ATOM      4  C   UNL     1      49.699  57.584  21.820  1.00  0.00    +0.004 A 
ATOM      5  C   UNL     1      50.656  57.017  20.980  1.00  0.00    +0.048 A 
ATOM      6  C   UNL     1      50.296  56.630  19.687  1.00  0.00    +0.143 A 
ENDROOT
BRANCH   1   7
ATOM      7  N   UNL     1      48.682  56.298  17.934  1.00  0.00    -0.305 N 
ATOM      8  N   UNL     1      47.923  56.159  15.801  1.00  0.00    -0.338 N 
ATOM      9  C   UNL     1      48.114  56.989  16.889  1.00  0.00    +0.319 C 
ATOM     10  O   UNL     1      47.816  58.175  16.872  1.00  0.00    -0.249 OA
ATOM     11  H   UNL     1      47.813  55.178  16.007  1.00  0.00    +0.165 HD
ATOM     12  H   UNL     1      49.035  55.373  17.733  1.00  0.00    +0.172 HD
BRANCH   8  13
ATOM     13  C   UNL     1      47.281  56.648  14.596  1.00  0.00    +0.114 C 
ATOM     14  C   UNL     1      45.787  56.374  14.596  1.00  0.00    +0.027 C 
ENDBRANCH   8  13
ENDBRANCH   1   7
BRANCH   6  15
ATOM     15  O   UNL     1      51.214  56.044  18.845  1.00  0.00    -0.489 OA
BRANCH  15  16
ATOM     16  C   UNL     1      52.022  55.082  19.535  1.00  0.00    +0.261 C 
BRANCH  16  17
ATOM     17  C   UNL     1      51.565  53.661  19.157  1.00  0.00    +0.155 C 
ATOM     18  C   UNL     1      50.259  53.247  19.852  1.00  0.00    +0.036 C 
ATOM     19  O   UNL     1      52.654  52.757  19.392  1.00  0.00    -0.375 OA
ATOM     20  C   UNL     1      50.459  52.996  21.344  1.00  0.00    +0.005 C 
ATOM     21  C   UNL     1      52.425  51.752  20.379  1.00  0.00    +0.160 C 
ATOM     22  C   UNL     1      51.804  52.335  21.639  1.00  0.00    +0.029 C 
ENDBRANCH  16  17
ENDBRANCH  15  16
ENDBRANCH   6  15
TORSDOF 5
ENDMDL
MODEL 3
REMARK VINA RESULT:    -6.723      3.329      6.098
REMARK INTER + INTRA:          -9.299
REMARK INTER:                  -8.688
REMARK INTRA:                  -0.611
REMARK UNBOUND:                -0.612
REMARK SMILES CCNC(=O)Nc1ccccc1OC[C@@H]1CCCCO1
REMARK SMILES IDX 7 1 8 2 9 3 10 4 11 5 12 6 6 7 3 8 4 9 5 10 2 13 1 14 13 15
REMARK SMILES IDX 14 16 15 17 16 18 20 19 17 20 19 21 18 22
REMARK H PARENT 3 11 6 12
ROOT
ATOM      1  C   UNL     1      48.223  57.167  18.014  1.00  0.00    +0.085 A 
ATOM      2  C   UNL     1      47.746  58.271  18.720  1.00  0.00    +0.030 A 
ATOM      3  C   UNL     1      47.813  58.298  20.118  1.00  0.00    +0.002 A 
ATOM      4  C   UNL     1      48.346  57.218  20.820  1.00  0.00    +0.004 A 
ATOM      5  C   UNL     1      48.823  56.106  20.128  1.00  0.00    +0.048 A 
ATOM      6  C   UNL     1      48.782  56.093  18.731  1.00  0.00    +0.143 A 
ENDROOT
BRANCH   1   7
ATOM      7  N   UNL     1      48.171  57.048  16.609  1.00  0.00    -0.305 N 
ATOM      8  N   UNL     1      47.467  57.106  14.453  1.00  0.00    -0.338 N 
ATOM      9  C   UNL     1      47.186  57.481  15.754  1.00  0.00    +0.319 C 
ATOM     10  O   UNL     1      46.189  58.124  16.051  1.00  0.00    -0.249 OA
ATOM     11  H   UNL     1      48.043  56.285  14.345  1.00  0.00    +0.165 HD
ATOM     12  H   UNL     1      49.017  56.689  16.189  1.00  0.00    +0.172 HD
BRANCH   8  13
ATOM     13  C   UNL     1      46.540  57.398  13.378  1.00  0.00    +0.114 C 
ATOM     14  C   UNL     1      47.150  57.137  12.012  1.00  0.00    +0.027 C 
ENDBRANCH   8  13
ENDBRANCH   1   7
BRANCH   6  15
ATOM     15  O   UNL     1      49.222  54.998  18.023  1.00  0.00    -0.489 OA
BRANCH  15  16
ATOM     16  C   UNL     1      49.027  53.782  18.757  1.00  0.00    +0.261 C 
BRANCH  16  17
ATOM     17  C   UNL     1      50.311  52.934  18.695  1.00  0.00    +0.155 C 
ATOM     18  C   UNL     1      50.508  52.054  19.938  1.00  0.00    +0.036 C 
ATOM     19  O   UNL     1      51.417  53.808  18.427  1.00  0.00    -0.375 OA
ATOM     20  C   UNL     1      50.877  52.875  21.171  1.00  0.00    +0.005 C 
ATOM     21  C   UNL     1      52.415  53.878  19.446  1.00  0.00    +0.160 C 
ATOM     22  C   UNL     1      51.797  54.045  20.825  1.00  0.00    +0.029 C 
ENDBRANCH  16  17
ENDBRANCH  15  16
ENDBRANCH   6  15
TORSDOF 5
ENDMDL
MODEL 4
REMARK VINA RESULT:    -6.676      2.707      5.122
REMARK INTER + INTRA:          -9.239
REMARK INTER:                  -8.574
REMARK INTRA:                  -0.665
REMARK UNBOUND:                -0.612
REMARK SMILES CCNC(=O)Nc1ccccc1OC[C@@H]1CCCCO1
REMARK SMILES IDX 7 1 8 2 9 3 10 4 11 5 12 6 6 7 3 8 4 9 5 10 2 13 1 14 13 15
REMARK SMILES IDX 14 16 15 17 16 18 20 19 17 20 19 21 18 22
REMARK H PARENT 3 11 6 12
ROOT
ATOM      1  C   UNL     1      48.313  56.703  18.679  1.00  0.00    +0.085 A 
ATOM      2  C   UNL     1      47.861  57.424  17.573  1.00  0.00    +0.030 A 
ATOM      3  C   UNL     1      47.465  58.760  17.716  1.00  0.00    +0.002 A 
ATOM      4  C   UNL     1      47.506  59.378  18.965  1.00  0.00    +0.004 A 
ATOM      5  C   UNL     1      47.952  58.669  20.078  1.00  0.00    +0.048 A 
ATOM      6  C   UNL     1      48.374  57.345  19.929  1.00  0.00    +0.143 A 
ENDROOT
BRANCH   1   7
ATOM      7  N   UNL     1      48.708  55.349  18.628  1.00  0.00    -0.305 N 
ATOM      8  N   UNL     1      49.027  53.209  17.948  1.00  0.00    -0.338 N 
ATOM      9  C   UNL     1      48.596  54.469  17.577  1.00  0.00    +0.319 C 
ATOM     10  O   UNL     1      48.193  54.721  16.450  1.00  0.00    -0.249 OA
ATOM     11  H   UNL     1      48.958  52.989  18.929  1.00  0.00    +0.165 HD
ATOM     12  H   UNL     1      49.226  55.034  19.436  1.00  0.00    +0.172 HD
BRANCH   8  13
ATOM     13  C   UNL     1      48.947  52.095  17.023  1.00  0.00    +0.114 C 
ATOM     14  C   UNL     1      47.625  51.355  17.135  1.00  0.00    +0.027 C 
ENDBRANCH   8  13
ENDBRANCH   1   7
BRANCH   6  15
ATOM     15  O   UNL     1      48.795  56.612  21.015  1.00  0.00    -0.489 OA
BRANCH  15  16
ATOM     16  C   UNL     1      49.810  57.304  21.756  1.00  0.00    +0.261 C 
BRANCH  16  17
ATOM     17  C   UNL     1      50.967  56.336  22.067  1.00  0.00    +0.155 C 
ATOM     18  C   UNL     1      52.350  56.978  21.884  1.00  0.00    +0.036 C 
ATOM     19  O   UNL     1      50.779  55.143  21.292  1.00  0.00    -0.375 OA
ATOM     20  C   UNL     1      52.684  57.213  20.413  1.00  0.00    +0.005 C 
ATOM     21  C   UNL     1      51.798  54.856  20.335  1.00  0.00    +0.160 C 
ATOM     22  C   UNL     1      52.164  56.087  19.521  1.00  0.00    +0.029 C 
ENDBRANCH  16  17
ENDBRANCH  15  16
ENDBRANCH   6  15
TORSDOF 5
ENDMDL
MODEL 5
REMARK VINA RESULT:    -6.642      2.104      6.496
REMARK INTER + INTRA:          -9.195
REMARK INTER:                  -8.468
REMARK INTRA:                  -0.727
REMARK UNBOUND:                -0.612
REMARK SMILES CCNC(=O)Nc1ccccc1OC[C@@H]1CCCCO1
REMARK SMILES IDX 7 1 8 2 9 3 10 4 11 5 12 6 6 7 3 8 4 9 5 10 2 13 1 14 13 15
REMARK SMILES IDX 14 16 15 17 16 18 20 19 17 20 19 21 18 22
REMARK H PARENT 3 11 6 12
ROOT
ATOM      1  C   UNL     1      50.375  52.963  20.346  1.00  0.00    +0.085 A 
ATOM      2  C   UNL     1      51.074  52.788  21.540  1.00  0.00    +0.030 A 
ATOM      3  C   UNL     1      51.994  51.741  21.673  1.00  0.00    +0.002 A 
ATOM      4  C   UNL     1      52.213  50.856  20.617  1.00  0.00    +0.004 A 
ATOM      5  C   UNL     1      51.519  51.018  19.419  1.00  0.00    +0.048 A 
ATOM      6  C   UNL     1      50.623  52.080  19.279  1.00  0.00    +0.143 A 
ENDROOT
BRANCH   1   7
ATOM      7  N   UNL     1      49.414  53.976  20.137  1.00  0.00    -0.305 N 
ATOM      8  N   UNL     1      48.423  55.994  19.839  1.00  0.00    -0.338 N 
ATOM      9  C   UNL     1      49.625  55.317  19.920  1.00  0.00    +0.319 C 
ATOM     10  O   UNL     1      50.705  55.877  19.794  1.00  0.00    -0.249 OA
ATOM     11  H   UNL     1      47.646  55.576  20.329  1.00  0.00    +0.165 HD
ATOM     12  H   UNL     1      48.468  53.639  20.037  1.00  0.00    +0.172 HD
BRANCH   8  13
ATOM     13  C   UNL     1      48.390  57.434  19.674  1.00  0.00    +0.114 C 
ATOM     14  C   UNL     1      48.192  58.155  20.996  1.00  0.00    +0.027 C 
ENDBRANCH   8  13
ENDBRANCH   1   7
BRANCH   6  15
ATOM     15  O   UNL     1      49.905  52.249  18.116  1.00  0.00    -0.489 OA
BRANCH  15  16
ATOM     16  C   UNL     1      49.764  51.015  17.401  1.00  0.00    +0.261 C 
BRANCH  16  17
ATOM     17  C   UNL     1      48.300  50.542  17.478  1.00  0.00    +0.155 C 
ATOM     18  C   UNL     1      48.123  49.277  18.330  1.00  0.00    +0.036 C 
ATOM     19  O   UNL     1      47.796  50.411  16.141  1.00  0.00    -0.375 OA
ATOM     20  C   UNL     1      48.691  48.038  17.642  1.00  0.00    +0.005 C 
ATOM     21  C   UNL     1      47.409  49.094  15.749  1.00  0.00    +0.160 C 
ATOM     22  C   UNL     1      48.459  48.064  16.132  1.00  0.00    +0.029 C 
ENDBRANCH  16  17
ENDBRANCH  15  16
ENDBRANCH   6  15
TORSDOF 5
ENDMDL
