MODEL 1
REMARK VINA RESULT:    -7.307      0.000      0.000
REMARK INTER + INTRA:         -11.456
REMARK INTER:                 -10.724
REMARK INTRA:                  -0.732
REMARK UNBOUND:                -0.732
REMARK SMILES CCC[C@@H](NC(N)=O)C(=O)N[C@H](C)CCc1ccco1
REMARK SMILES IDX 9 1 10 2 11 3 4 5 3 6 2 7 1 8 5 9 6 10 8 11 7 12 12 16 13 17
REMARK SMILES IDX 14 18 15 19 16 20 17 21 20 22 18 23 19 24
REMARK H PARENT 11 4 5 13 7 14 7 15
ROOT
ATOM      1  C   UNL     1      49.488  51.054  18.166  1.00  0.00    +0.242 C 
ATOM      2  O   UNL     1      49.204  51.352  17.008  1.00  0.00    -0.273 OA
ATOM      3  N   UNL     1      49.935  51.985  19.084  1.00  0.00    -0.352 N 
ATOM      4  H   UNL     1      49.972  51.691  20.062  1.00  0.00    +0.163 HD
ENDROOT
BRANCH   1   5
ATOM      5  C   UNL     1      49.325  49.622  18.741  1.00  0.00    +0.173 C 
BRANCH   5   6
ATOM      6  C   UNL     1      48.468  48.751  17.809  1.00  0.00    +0.035 C 
BRANCH   6   7
ATOM      7  C   UNL     1      47.019  48.548  18.268  1.00  0.00    -0.001 C 
ATOM      8  C   UNL     1      45.998  49.420  17.554  1.00  0.00    +0.004 C 
ENDBRANCH   6   7
ENDBRANCH   5   6
BRANCH   5   9
ATOM      9  N   UNL     1      50.647  49.026  18.948  1.00  0.00    -0.327 N 
ATOM     10  C   UNL     1      51.288  49.140  20.142  1.00  0.00    +0.312 C 
ATOM     11  O   UNL     1      50.853  49.723  21.124  1.00  0.00    -0.249 OA
ATOM     12  N   UNL     1      52.507  48.551  20.133  1.00  0.00    -0.352 N 
ATOM     13  H   UNL     1      51.267  49.034  18.149  1.00  0.00    +0.166 HD
ATOM     14  H   UNL     1      52.583  47.691  19.609  1.00  0.00    +0.161 HD
ATOM     15  H   UNL     1      52.947  48.523  21.045  1.00  0.00    +0.161 HD
ENDBRANCH   5   9
ENDBRANCH   1   5
BRANCH   3  16
ATOM     16  C   UNL     1      50.012  53.408  18.782  1.00  0.00    +0.079 C 
ATOM     17  C   UNL     1      51.466  53.864  18.880  1.00  0.00    +0.031 C 
BRANCH  16  18
ATOM     18  C   UNL     1      49.087  54.195  19.723  1.00  0.00    +0.032 C 
BRANCH  18  19
ATOM     19  C   UNL     1      48.736  55.584  19.186  1.00  0.00    +0.077 C 
BRANCH  19  20
ATOM     20  C   UNL     1      48.838  56.614  20.253  1.00  0.00    +0.103 A 
ATOM     21  C   UNL     1      47.974  57.576  20.732  1.00  0.00    +0.045 A 
ATOM     22  O   UNL     1      50.018  56.661  20.934  1.00  0.00    -0.469 OA
ATOM     23  C   UNL     1      48.666  58.248  21.769  1.00  0.00    +0.042 A 
ATOM     24  C   UNL     1      49.904  57.656  21.851  1.00  0.00    +0.195 A 
ENDBRANCH  19  20
ENDBRANCH  18  19
ENDBRANCH  16  18
ENDBRANCH   3  16
TORSDOF 8
ENDMDL
MODEL 2
REMARK VINA RESULT:    -7.157      3.107      6.248
REMARK INTER + INTRA:         -11.236
REMARK INTER:                 -10.496
REMARK INTRA:                  -0.740
REMARK UNBOUND:                -0.732
REMARK SMILES CCC[C@@H](NC(N)=O)C(=O)N[C@H](C)CCc1ccco1
REMARK SMILES IDX 9 1 10 2 11 3 4 5 3 6 2 7 1 8 5 9 6 10 8 11 7 12 12 16 13 17
REMARK SMILES IDX 14 18 15 19 16 20 17 21 20 22 18 23 19 24
REMARK H PARENT 11 4 5 13 7 14 7 15
ROOT
ATOM      1  C   UNL     1      50.346  51.632  18.002  1.00  0.00    +0.242 C 
ATOM      2  O   UNL     1      50.630  50.839  17.107  1.00  0.00    -0.273 OA
ATOM      3  N   UNL     1      49.256  52.478  17.927  1.00  0.00    -0.352 N 
ATOM      4  H   UNL     1      48.991  52.968  18.783  1.00  0.00    +0.163 HD
ENDROOT
BRANCH   1   5
ATOM      5  C   UNL     1      51.142  51.736  19.331  1.00  0.00    +0.173 C 
BRANCH   5   6
ATOM      6  C   UNL     1      50.446  52.693  20.312  1.00  0.00    +0.035 C 
BRANCH   6   7
ATOM      7  C   UNL     1      50.975  52.637  21.751  1.00  0.00    -0.001 C 
ATOM      8  C   UNL     1      51.545  53.947  22.270  1.00  0.00    +0.004 C 
ENDBRANCH   6   7
ENDBRANCH   5   6
BRANCH   5   9
ATOM      9  N   UNL     1      51.293  50.402  19.915  1.00  0.00    -0.327 N 
ATOM     10  C   UNL     1      52.400  49.651  19.673  1.00  0.00    +0.312 C 
ATOM     11  O   UNL     1      53.344  49.991  18.974  1.00  0.00    -0.249 OA
ATOM     12  N   UNL     1      52.346  48.440  20.274  1.00  0.00    -0.352 N 
ATOM     13  H   UNL     1      50.444  49.861  20.009  1.00  0.00    +0.166 HD
ATOM     14  H   UNL     1      51.921  48.416  21.190  1.00  0.00    +0.161 HD
ATOM     15  H   UNL     1      53.210  47.916  20.202  1.00  0.00    +0.161 HD
ENDBRANCH   5   9
ENDBRANCH   1   5
BRANCH   3  16
ATOM     16  C   UNL     1      48.301  52.427  16.829  1.00  0.00    +0.079 C 
ATOM     17  C   UNL     1      47.891  53.851  16.456  1.00  0.00    +0.031 C 
BRANCH  16  18
ATOM     18  C   UNL     1      47.097  51.555  17.220  1.00  0.00    +0.032 C 
BRANCH  18  19
ATOM     19  C   UNL     1      47.147  50.160  16.594  1.00  0.00    +0.077 C 
BRANCH  19  20
ATOM     20  C   UNL     1      46.406  49.173  17.423  1.00  0.00    +0.103 A 
ATOM     21  C   UNL     1      46.721  48.460  18.560  1.00  0.00    +0.045 A 
ATOM     22  O   UNL     1      45.140  48.873  17.015  1.00  0.00    -0.469 OA
ATOM     23  C   UNL     1      45.579  47.679  18.866  1.00  0.00    +0.042 A 
ATOM     24  C   UNL     1      44.647  47.965  17.897  1.00  0.00    +0.195 A 
ENDBRANCH  19  20
ENDBRANCH  18  19
ENDBRANCH  16  18
ENDBRANCH   3  16
TORSDOF 8
ENDMDL
MODEL 3
REMARK VINA RESULT:    -6.856      2.620      6.980
REMARK INTER + INTRA:         -10.794
REMARK INTER:                 -10.158
REMARK INTRA:                  -0.637
REMARK UNBOUND:                -0.732
REMARK SMILES CCC[C@@H](NC(N)=O)C(=O)N[C@H](C)CCc1ccco1
REMARK SMILES IDX 9 1 10 2 11 3 4 5 3 6 2 7 1 8 5 9 6 10 8 11 7 12 12 16 13 17
REMARK SMILES IDX 14 18 15 19 16 20 17 21 20 22 18 23 19 24
REMARK H PARENT 11 4 5 13 7 14 7 15
ROOT
ATOM      1  C   UNL     1      50.190  53.794  18.613  1.00  0.00    +0.242 C 
ATOM      2  O   UNL     1      51.178  53.201  18.185  1.00  0.00    -0.273 OA
ATOM      3  N   UNL     1      48.925  53.602  18.091  1.00  0.00    -0.352 N 
ATOM      4  H   UNL     1      48.142  53.991  18.620  1.00  0.00    +0.163 HD
ENDROOT
BRANCH   1   5
ATOM      5  C   UNL     1      50.240  54.777  19.813  1.00  0.00    +0.173 C 
BRANCH   5   6
ATOM      6  C   UNL     1      48.933  55.579  19.920  1.00  0.00    +0.035 C 
BRANCH   6   7
ATOM      7  C   UNL     1      49.117  57.096  20.053  1.00  0.00    -0.001 C 
ATOM      8  C   UNL     1      48.506  57.701  21.306  1.00  0.00    +0.004 C 
ENDBRANCH   6   7
ENDBRANCH   5   6
BRANCH   5   9
ATOM      9  N   UNL     1      50.500  54.029  21.046  1.00  0.00    -0.327 N 
ATOM     10  C   UNL     1      51.519  54.378  21.876  1.00  0.00    +0.312 C 
ATOM     11  O   UNL     1      52.292  55.306  21.692  1.00  0.00    -0.249 OA
ATOM     12  N   UNL     1      51.619  53.555  22.945  1.00  0.00    -0.352 N 
ATOM     13  H   UNL     1      50.328  53.033  21.005  1.00  0.00    +0.166 HD
ATOM     14  H   UNL     1      50.748  53.228  23.340  1.00  0.00    +0.161 HD
ATOM     15  H   UNL     1      52.295  53.869  23.632  1.00  0.00    +0.161 HD
ENDBRANCH   5   9
ENDBRANCH   1   5
BRANCH   3  16
ATOM     16  C   UNL     1      48.646  52.611  17.061  1.00  0.00    +0.079 C 
ATOM     17  C   UNL     1      47.533  53.131  16.154  1.00  0.00    +0.031 C 
BRANCH  16  18
ATOM     18  C   UNL     1      48.290  51.264  17.711  1.00  0.00    +0.032 C 
BRANCH  18  19
ATOM     19  C   UNL     1      47.559  50.319  16.756  1.00  0.00    +0.077 C 
BRANCH  19  20
ATOM     20  C   UNL     1      46.731  49.337  17.504  1.00  0.00    +0.103 A 
ATOM     21  C   UNL     1      47.003  48.431  18.508  1.00  0.00    +0.045 A 
ATOM     22  O   UNL     1      45.412  49.277  17.162  1.00  0.00    -0.469 OA
ATOM     23  C   UNL     1      45.778  47.782  18.798  1.00  0.00    +0.042 A 
ATOM     24  C   UNL     1      44.842  48.331  17.953  1.00  0.00    +0.195 A 
ENDBRANCH  19  20
ENDBRANCH  18  19
ENDBRANCH  16  18
ENDBRANCH   3  16
TORSDOF 8
ENDMDL
MODEL 4
REMARK VINA RESULT:    -6.837      2.128      2.856
REMARK INTER + INTRA:         -10.766
REMARK INTER:                  -9.937
REMARK INTRA:                  -0.829
REMARK UNBOUND:                -0.732
REMARK SMILES CCC[C@@H](NC(N)=O)C(=O)N[C@H](C)CCc1ccco1
REMARK SMILES IDX 9 1 10 2 11 3 4 5 3 6 2 7 1 8 5 9 6 10 8 11 7 12 12 16 13 17
REMARK SMILES IDX 14 18 15 19 16 20 17 21 20 22 18 23 19 24
REMARK H PARENT 11 4 5 13 7 14 7 15
ROOT
ATOM      1  C   UNL     1      50.839  51.433  18.112  1.00  0.00    +0.242 C 
ATOM      2  O   UNL     1      52.061  51.410  17.981  1.00  0.00    -0.273 OA
ATOM      3  N   UNL     1      50.211  52.174  19.096  1.00  0.00    -0.352 N 
ATOM      4  H   UNL     1      49.198  52.281  19.020  1.00  0.00    +0.163 HD
ENDROOT
BRANCH   1   5
ATOM      5  C   UNL     1      49.866  50.682  17.164  1.00  0.00    +0.173 C 
BRANCH   5   6
ATOM      6  C   UNL     1      48.576  51.489  16.952  1.00  0.00    +0.035 C 
BRANCH   6   7
ATOM      7  C   UNL     1      47.280  50.719  17.237  1.00  0.00    -0.001 C 
ATOM      8  C   UNL     1      47.460  49.455  18.063  1.00  0.00    +0.004 C 
ENDBRANCH   6   7
ENDBRANCH   5   6
BRANCH   5   9
ATOM      9  N   UNL     1      50.535  50.416  15.889  1.00  0.00    -0.327 N 
ATOM     10  C   UNL     1      50.185  49.348  15.123  1.00  0.00    +0.312 C 
ATOM     11  O   UNL     1      49.318  48.534  15.402  1.00  0.00    -0.249 OA
ATOM     12  N   UNL     1      50.932  49.252  13.998  1.00  0.00    -0.352 N 
ATOM     13  H   UNL     1      51.520  50.643  15.849  1.00  0.00    +0.166 HD
ATOM     14  H   UNL     1      51.179  50.124  13.551  1.00  0.00    +0.161 HD
ATOM     15  H   UNL     1      50.608  48.534  13.361  1.00  0.00    +0.161 HD
ENDBRANCH   5   9
ENDBRANCH   1   5
BRANCH   3  16
ATOM     16  C   UNL     1      50.940  53.064  19.989  1.00  0.00    +0.079 C 
ATOM     17  C   UNL     1      50.655  52.664  21.436  1.00  0.00    +0.031 C 
BRANCH  16  18
ATOM     18  C   UNL     1      50.561  54.525  19.700  1.00  0.00    +0.032 C 
BRANCH  18  19
ATOM     19  C   UNL     1      49.065  54.795  19.866  1.00  0.00    +0.077 C 
BRANCH  19  20
ATOM     20  C   UNL     1      48.824  56.145  20.438  1.00  0.00    +0.103 A 
ATOM     21  C   UNL     1      47.855  57.106  20.233  1.00  0.00    +0.045 A 
ATOM     22  O   UNL     1      49.724  56.576  21.367  1.00  0.00    -0.469 OA
ATOM     23  C   UNL     1      48.182  58.186  21.089  1.00  0.00    +0.042 A 
ATOM     24  C   UNL     1      49.326  57.815  21.756  1.00  0.00    +0.195 A 
ENDBRANCH  19  20
ENDBRANCH  18  19
ENDBRANCH  16  18
ENDBRANCH   3  16
TORSDOF 8
ENDMDL
MODEL 5
REMARK VINA RESULT:    -6.758      2.428      7.002
REMARK INTER + INTRA:         -10.651
REMARK INTER:                  -9.997
REMARK INTRA:                  -0.654
REMARK UNBOUND:                -0.732
REMARK SMILES CCC[C@@H](NC(N)=O)C(=O)N[C@H](C)CCc1ccco1
REMARK SMILES IDX 9 1 10 2 11 3 4 5 3 6 2 7 1 8 5 9 6 10 8 11 7 12 12 16 13 17
REMARK SMILES IDX 14 18 15 19 16 20 17 21 20 22 18 23 19 24
REMARK H PARENT 11 4 5 13 7 14 7 15
ROOT
ATOM      1  C   UNL     1      50.864  52.648  20.677  1.00  0.00    +0.242 C 
ATOM      2  O   UNL     1      50.858  52.264  21.844  1.00  0.00    -0.273 OA
ATOM      3  N   UNL     1      50.737  51.780  19.609  1.00  0.00    -0.352 N 
ATOM      4  H   UNL     1      50.569  52.196  18.691  1.00  0.00    +0.163 HD
ENDROOT
BRANCH   1   5
ATOM      5  C   UNL     1      50.958  54.143  20.273  1.00  0.00    +0.173 C 
BRANCH   5   6
ATOM      6  C   UNL     1      49.837  54.516  19.288  1.00  0.00    +0.035 C 
BRANCH   6   7
ATOM      7  C   UNL     1      48.557  55.052  19.942  1.00  0.00    -0.001 C 
ATOM      8  C   UNL     1      48.265  56.517  19.660  1.00  0.00    +0.004 C 
ENDBRANCH   6   7
ENDBRANCH   5   6
BRANCH   5   9
ATOM      9  N   UNL     1      50.901  54.978  21.474  1.00  0.00    -0.327 N 
ATOM     10  C   UNL     1      51.859  55.910  21.727  1.00  0.00    +0.312 C 
ATOM     11  O   UNL     1      52.825  56.139  21.014  1.00  0.00    -0.249 OA
ATOM     12  N   UNL     1      51.652  56.561  22.895  1.00  0.00    -0.352 N 
ATOM     13  H   UNL     1      50.532  54.535  22.305  1.00  0.00    +0.166 HD
ATOM     14  H   UNL     1      50.690  56.763  23.128  1.00  0.00    +0.161 HD
ATOM     15  H   UNL     1      52.287  57.337  23.041  1.00  0.00    +0.161 HD
ENDBRANCH   5   9
ENDBRANCH   1   5
BRANCH   3  16
ATOM     16  C   UNL     1      50.489  50.355  19.784  1.00  0.00    +0.079 C 
ATOM     17  C   UNL     1      51.823  49.613  19.810  1.00  0.00    +0.031 C 
BRANCH  16  18
ATOM     18  C   UNL     1      49.556  49.845  18.674  1.00  0.00    +0.032 C 
BRANCH  18  19
ATOM     19  C   UNL     1      48.598  48.755  19.158  1.00  0.00    +0.077 C 
BRANCH  19  20
ATOM     20  C   UNL     1      47.275  48.869  18.491  1.00  0.00    +0.103 A 
ATOM     21  C   UNL     1      46.764  49.714  17.529  1.00  0.00    +0.045 A 
ATOM     22  O   UNL     1      46.326  47.968  18.877  1.00  0.00    -0.469 OA
ATOM     23  C   UNL     1      45.425  49.306  17.313  1.00  0.00    +0.042 A 
ATOM     24  C   UNL     1      45.207  48.242  18.157  1.00  0.00    +0.195 A 
ENDBRANCH  19  20
ENDBRANCH  18  19
ENDBRANCH  16  18
ENDBRANCH   3  16
TORSDOF 8
ENDMDL
