MODEL 1
REMARK VINA RESULT:    -6.691      0.000      0.000
REMARK INTER + INTRA:         -10.634
REMARK INTER:                  -9.821
REMARK INTRA:                  -0.813
REMARK UNBOUND:                -0.813
REMARK SMILES CCC(CC)(CNC(=O)CNC(=O)NC1CC1)[NH+](C)C
REMARK SMILES IDX 7 1 8 2 9 3 6 5 3 6 2 7 1 8 4 9 5 10 18 11 19 12 20 13 10 15
REMARK SMILES IDX 11 16 12 17 13 18 14 19 15 22 16 23 17 24
REMARK H PARENT 7 4 18 14 11 20 14 21
ROOT
ATOM      1  N   UNL     1      50.291  49.262  18.803  1.00  0.00    -0.348 N 
ATOM      2  C   UNL     1      50.938  49.114  20.009  1.00  0.00    +0.239 C 
ATOM      3  O   UNL     1      50.378  48.613  20.981  1.00  0.00    -0.273 OA
ATOM      4  H   UNL     1      50.725  49.929  18.156  1.00  0.00    +0.163 HD
ENDROOT
BRANCH   1   5
ATOM      5  C   UNL     1      48.898  48.925  18.603  1.00  0.00    +0.184 C 
BRANCH   5   6
ATOM      6  C   UNL     1      48.288  49.378  17.227  1.00  0.00    +0.114 C 
BRANCH   6   7
ATOM      7  C   UNL     1      48.038  48.150  16.295  1.00  0.00    +0.067 C 
ATOM      8  C   UNL     1      48.583  46.796  16.722  1.00  0.00    +0.010 C 
ENDBRANCH   6   7
BRANCH   6   9
ATOM      9  C   UNL     1      46.899  50.077  17.434  1.00  0.00    +0.067 C 
ATOM     10  C   UNL     1      45.662  49.186  17.370  1.00  0.00    +0.010 C 
ENDBRANCH   6   9
BRANCH   6  11
ATOM     11  N   UNL     1      49.248  50.432  16.549  1.00  0.00    -0.334 N 
ATOM     12  C   UNL     1      49.932  50.024  15.265  1.00  0.00    +0.333 C 
ATOM     13  C   UNL     1      48.688  51.830  16.427  1.00  0.00    +0.333 C 
ATOM     14  H   UNL     1      50.034  50.524  17.205  1.00  0.00    +0.348 HD
ENDBRANCH   6  11
ENDBRANCH   5   6
ENDBRANCH   1   5
BRANCH   2  15
ATOM     15  C   UNL     1      52.339  49.742  20.102  1.00  0.00    +0.217 C 
BRANCH  15  16
ATOM     16  N   UNL     1      52.474  50.872  21.020  1.00  0.00    -0.329 N 
ATOM     17  C   UNL     1      51.776  52.033  20.811  1.00  0.00    +0.315 C 
ATOM     18  O   UNL     1      51.226  52.292  19.745  1.00  0.00    -0.249 OA
ATOM     19  N   UNL     1      51.831  52.880  21.888  1.00  0.00    -0.335 N 
ATOM     20  H   UNL     1      52.589  50.619  21.991  1.00  0.00    +0.165 HD
ATOM     21  H   UNL     1      52.448  52.657  22.656  1.00  0.00    +0.165 HD
BRANCH  19  22
ATOM     22  C   UNL     1      51.216  54.171  21.866  1.00  0.00    +0.084 C 
ATOM     23  C   UNL     1      51.650  55.242  22.826  1.00  0.00    +0.027 C 
ATOM     24  C   UNL     1      51.965  55.374  21.365  1.00  0.00    +0.027 C 
ENDBRANCH  19  22
ENDBRANCH  15  16
ENDBRANCH   2  15
TORSDOF 8
ENDMDL
MODEL 2
REMARK VINA RESULT:    -6.677      0.844      1.595
REMARK INTER + INTRA:         -10.614
REMARK INTER:                  -9.870
REMARK INTRA:                  -0.744
REMARK UNBOUND:                -0.813
REMARK SMILES CCC(CC)(CNC(=O)CNC(=O)NC1CC1)[NH+](C)C
REMARK SMILES IDX 7 1 8 2 9 3 6 5 3 6 2 7 1 8 4 9 5 10 18 11 19 12 20 13 10 15
REMARK SMILES IDX 11 16 12 17 13 18 14 19 15 22 16 23 17 24
REMARK H PARENT 7 4 18 14 11 20 14 21
ROOT
ATOM      1  N   UNL     1      50.478  49.348  18.825  1.00  0.00    -0.348 N 
ATOM      2  C   UNL     1      51.114  49.147  20.028  1.00  0.00    +0.239 C 
ATOM      3  O   UNL     1      50.577  48.527  20.943  1.00  0.00    -0.273 OA
ATOM      4  H   UNL     1      50.872  50.096  18.245  1.00  0.00    +0.163 HD
ENDROOT
BRANCH   1   5
ATOM      5  C   UNL     1      49.117  48.929  18.566  1.00  0.00    +0.184 C 
BRANCH   5   6
ATOM      6  C   UNL     1      48.395  49.678  17.387  1.00  0.00    +0.114 C 
BRANCH   6   7
ATOM      7  C   UNL     1      46.843  49.622  17.557  1.00  0.00    +0.067 C 
ATOM      8  C   UNL     1      46.246  48.492  18.381  1.00  0.00    +0.010 C 
ENDBRANCH   6   7
BRANCH   6   9
ATOM      9  C   UNL     1      48.792  51.194  17.363  1.00  0.00    +0.067 C 
ATOM     10  C   UNL     1      47.658  52.203  17.208  1.00  0.00    +0.010 C 
ENDBRANCH   6   9
BRANCH   6  11
ATOM     11  N   UNL     1      48.849  49.050  16.012  1.00  0.00    -0.334 N 
ATOM     12  C   UNL     1      47.765  48.541  15.089  1.00  0.00    +0.333 C 
ATOM     13  C   UNL     1      49.863  49.859  15.238  1.00  0.00    +0.333 C 
ATOM     14  H   UNL     1      49.347  48.190  16.273  1.00  0.00    +0.348 HD
ENDBRANCH   6  11
ENDBRANCH   5   6
ENDBRANCH   1   5
BRANCH   2  15
ATOM     15  C   UNL     1      52.463  49.865  20.204  1.00  0.00    +0.217 C 
BRANCH  15  16
ATOM     16  N   UNL     1      52.493  50.934  21.200  1.00  0.00    -0.329 N 
ATOM     17  C   UNL     1      51.839  52.118  20.978  1.00  0.00    +0.315 C 
ATOM     18  O   UNL     1      51.429  52.451  19.870  1.00  0.00    -0.249 OA
ATOM     19  N   UNL     1      51.767  52.898  22.104  1.00  0.00    -0.335 N 
ATOM     20  H   UNL     1      52.484  50.622  22.160  1.00  0.00    +0.165 HD
ATOM     21  H   UNL     1      52.281  52.618  22.928  1.00  0.00    +0.165 HD
BRANCH  19  22
ATOM     22  C   UNL     1      51.173  54.198  22.086  1.00  0.00    +0.084 C 
ATOM     23  C   UNL     1      51.676  55.283  22.996  1.00  0.00    +0.027 C 
ATOM     24  C   UNL     1      51.912  55.377  21.517  1.00  0.00    +0.027 C 
ENDBRANCH  19  22
ENDBRANCH  15  16
ENDBRANCH   2  15
TORSDOF 8
ENDMDL
MODEL 3
REMARK VINA RESULT:    -6.507      2.744      3.739
REMARK INTER + INTRA:         -10.363
REMARK INTER:                  -9.725
REMARK INTRA:                  -0.638
REMARK UNBOUND:                -0.813
REMARK SMILES CCC(CC)(CNC(=O)CNC(=O)NC1CC1)[NH+](C)C
REMARK SMILES IDX 7 1 8 2 9 3 6 5 3 6 2 7 1 8 4 9 5 10 18 11 19 12 20 13 10 15
REMARK SMILES IDX 11 16 12 17 13 18 14 19 15 22 16 23 17 24
REMARK H PARENT 7 4 18 14 11 20 14 21
ROOT
ATOM      1  N   UNL     1      51.298  52.015  18.338  1.00  0.00    -0.348 N 
ATOM      2  C   UNL     1      52.401  52.834  18.418  1.00  0.00    +0.239 C 
ATOM      3  O   UNL     1      53.371  52.681  17.680  1.00  0.00    -0.273 OA
ATOM      4  H   UNL     1      50.681  52.034  19.157  1.00  0.00    +0.163 HD
ENDROOT
BRANCH   1   5
ATOM      5  C   UNL     1      51.220  50.873  17.451  1.00  0.00    +0.184 C 
BRANCH   5   6
ATOM      6  C   UNL     1      49.765  50.404  17.086  1.00  0.00    +0.114 C 
BRANCH   6   7
ATOM      7  C   UNL     1      49.007  49.896  18.355  1.00  0.00    +0.067 C 
ATOM      8  C   UNL     1      49.754  49.004  19.335  1.00  0.00    +0.010 C 
ENDBRANCH   6   7
BRANCH   6   9
ATOM      9  C   UNL     1      48.924  51.592  16.504  1.00  0.00    +0.067 C 
ATOM     10  C   UNL     1      47.495  51.744  17.018  1.00  0.00    +0.010 C 
ENDBRANCH   6   9
BRANCH   6  11
ATOM     11  N   UNL     1      49.838  49.288  15.972  1.00  0.00    -0.334 N 
ATOM     12  C   UNL     1      48.636  48.386  15.812  1.00  0.00    +0.333 C 
ATOM     13  C   UNL     1      50.329  49.757  14.623  1.00  0.00    +0.333 C 
ATOM     14  H   UNL     1      50.564  48.641  16.303  1.00  0.00    +0.348 HD
ENDBRANCH   6  11
ENDBRANCH   5   6
ENDBRANCH   1   5
BRANCH   2  15
ATOM     15  C   UNL     1      52.403  53.846  19.577  1.00  0.00    +0.217 C 
BRANCH  15  16
ATOM     16  N   UNL     1      51.096  54.358  19.983  1.00  0.00    -0.329 N 
ATOM     17  C   UNL     1      50.825  55.701  19.944  1.00  0.00    +0.315 C 
ATOM     18  O   UNL     1      51.704  56.550  19.831  1.00  0.00    -0.249 OA
ATOM     19  N   UNL     1      49.493  55.974  20.117  1.00  0.00    -0.335 N 
ATOM     20  H   UNL     1      50.314  53.765  19.745  1.00  0.00    +0.165 HD
ATOM     21  H   UNL     1      48.867  55.223  20.374  1.00  0.00    +0.165 HD
BRANCH  19  22
ATOM     22  C   UNL     1      48.996  57.314  20.165  1.00  0.00    +0.084 C 
ATOM     23  C   UNL     1      47.566  57.588  20.536  1.00  0.00    +0.027 C 
ATOM     24  C   UNL     1      48.670  57.971  21.477  1.00  0.00    +0.027 C 
ENDBRANCH  19  22
ENDBRANCH  15  16
ENDBRANCH   2  15
TORSDOF 8
ENDMDL
MODEL 4
REMARK VINA RESULT:    -5.914      1.634      3.075
REMARK INTER + INTRA:          -9.493
REMARK INTER:                  -8.772
REMARK INTRA:                  -0.721
REMARK UNBOUND:                -0.813
REMARK SMILES CCC(CC)(CNC(=O)CNC(=O)NC1CC1)[NH+](C)C
REMARK SMILES IDX 7 1 8 2 9 3 6 5 3 6 2 7 1 8 4 9 5 10 18 11 19 12 20 13 10 15
REMARK SMILES IDX 11 16 12 17 13 18 14 19 15 22 16 23 17 24
REMARK H PARENT 7 4 18 14 11 20 14 21
ROOT
ATOM      1  N   UNL     1      51.025  51.347  18.743  1.00  0.00    -0.348 N 
ATOM      2  C   UNL     1      51.824  50.848  19.746  1.00  0.00    +0.239 C 
ATOM      3  O   UNL     1      52.639  49.954  19.534  1.00  0.00    -0.273 OA
ATOM      4  H   UNL     1      50.203  51.870  19.062  1.00  0.00    +0.163 HD
ENDROOT
BRANCH   1   5
ATOM      5  C   UNL     1      51.017  50.817  17.396  1.00  0.00    +0.184 C 
BRANCH   5   6
ATOM      6  C   UNL     1      49.620  50.316  16.880  1.00  0.00    +0.114 C 
BRANCH   6   7
ATOM      7  C   UNL     1      48.477  51.276  17.341  1.00  0.00    +0.067 C 
ATOM      8  C   UNL     1      48.212  52.531  16.524  1.00  0.00    +0.010 C 
ENDBRANCH   6   7
BRANCH   6   9
ATOM      9  C   UNL     1      49.581  50.290  15.312  1.00  0.00    +0.067 C 
ATOM     10  C   UNL     1      50.831  49.783  14.599  1.00  0.00    +0.010 C 
ENDBRANCH   6   9
BRANCH   6  11
ATOM     11  N   UNL     1      49.373  48.840  17.382  1.00  0.00    -0.334 N 
ATOM     12  C   UNL     1      49.060  48.647  18.847  1.00  0.00    +0.333 C 
ATOM     13  C   UNL     1      48.435  48.018  16.529  1.00  0.00    +0.333 C 
ATOM     14  H   UNL     1      50.286  48.378  17.283  1.00  0.00    +0.348 HD
ENDBRANCH   6  11
ENDBRANCH   5   6
ENDBRANCH   1   5
BRANCH   2  15
ATOM     15  C   UNL     1      51.529  51.370  21.163  1.00  0.00    +0.217 C 
BRANCH  15  16
ATOM     16  N   UNL     1      51.997  52.723  21.457  1.00  0.00    -0.329 N 
ATOM     17  C   UNL     1      51.156  53.799  21.336  1.00  0.00    +0.315 C 
ATOM     18  O   UNL     1      50.084  53.736  20.742  1.00  0.00    -0.249 OA
ATOM     19  N   UNL     1      51.681  54.941  21.882  1.00  0.00    -0.335 N 
ATOM     20  H   UNL     1      52.657  52.789  22.218  1.00  0.00    +0.165 HD
ATOM     21  H   UNL     1      52.642  54.938  22.197  1.00  0.00    +0.165 HD
BRANCH  19  22
ATOM     22  C   UNL     1      50.995  56.193  21.820  1.00  0.00    +0.084 C 
ATOM     23  C   UNL     1      51.758  57.488  21.839  1.00  0.00    +0.027 C 
ATOM     24  C   UNL     1      51.058  57.049  20.586  1.00  0.00    +0.027 C 
ENDBRANCH  19  22
ENDBRANCH  15  16
ENDBRANCH   2  15
TORSDOF 8
ENDMDL
MODEL 5
REMARK VINA RESULT:    -5.236      7.790     10.390
REMARK INTER + INTRA:          -8.498
REMARK INTER:                  -7.914
REMARK INTRA:                  -0.584
REMARK UNBOUND:                -0.813
REMARK SMILES CCC(CC)(CNC(=O)CNC(=O)NC1CC1)[NH+](C)C
REMARK SMILES IDX 7 1 8 2 9 3 6 5 3 6 2 7 1 8 4 9 5 10 18 11 19 12 20 13 10 15
REMARK SMILES IDX 11 16 12 17 13 18 14 19 15 22 16 23 17 24
REMARK H PARENT 7 4 18 14 11 20 14 21
ROOT
ATOM      1  N   UNL     1      47.572  60.312  19.203  1.00  0.00    -0.348 N 
ATOM      2  C   UNL     1      47.662  58.951  19.029  1.00  0.00    +0.239 C 
ATOM      3  O   UNL     1      47.772  58.451  17.911  1.00  0.00    -0.273 OA
ATOM      4  H   UNL     1      47.205  60.611  20.113  1.00  0.00    +0.163 HD
ENDROOT
BRANCH   1   5
ATOM      5  C   UNL     1      47.517  61.252  18.104  1.00  0.00    +0.184 C 
BRANCH   5   6
ATOM      6  C   UNL     1      46.114  61.915  17.856  1.00  0.00    +0.114 C 
BRANCH   6   7
ATOM      7  C   UNL     1      45.120  61.568  19.011  1.00  0.00    +0.067 C 
ATOM      8  C   UNL     1      44.168  62.651  19.494  1.00  0.00    +0.010 C 
ENDBRANCH   6   7
BRANCH   6   9
ATOM      9  C   UNL     1      46.233  63.478  17.817  1.00  0.00    +0.067 C 
ATOM     10  C   UNL     1      47.532  64.058  17.265  1.00  0.00    +0.010 C 
ENDBRANCH   6   9
BRANCH   6  11
ATOM     11  N   UNL     1      45.555  61.451  16.454  1.00  0.00    -0.334 N 
ATOM     12  C   UNL     1      45.022  60.041  16.350  1.00  0.00    +0.333 C 
ATOM     13  C   UNL     1      44.612  62.422  15.783  1.00  0.00    +0.333 C 
ATOM     14  H   UNL     1      46.381  61.427  15.842  1.00  0.00    +0.348 HD
ENDBRANCH   6  11
ENDBRANCH   5   6
ENDBRANCH   1   5
BRANCH   2  15
ATOM     15  C   UNL     1      47.468  58.096  20.294  1.00  0.00    +0.217 C 
BRANCH  15  16
ATOM     16  N   UNL     1      48.142  56.800  20.300  1.00  0.00    -0.329 N 
ATOM     17  C   UNL     1      49.454  56.693  20.681  1.00  0.00    +0.315 C 
ATOM     18  O   UNL     1      50.196  57.665  20.779  1.00  0.00    -0.249 OA
ATOM     19  N   UNL     1      49.844  55.391  20.863  1.00  0.00    -0.335 N 
ATOM     20  H   UNL     1      47.561  56.019  20.570  1.00  0.00    +0.165 HD
ATOM     21  H   UNL     1      49.214  54.647  20.594  1.00  0.00    +0.165 HD
BRANCH  19  22
ATOM     22  C   UNL     1      51.187  55.046  21.211  1.00  0.00    +0.084 C 
ATOM     23  C   UNL     1      51.555  54.741  22.636  1.00  0.00    +0.027 C 
ATOM     24  C   UNL     1      51.545  53.643  21.613  1.00  0.00    +0.027 C 
ENDBRANCH  19  22
ENDBRANCH  15  16
ENDBRANCH   2  15
TORSDOF 8
ENDMDL
