MODEL 1
REMARK VINA RESULT:    -7.094      0.000      0.000
REMARK INTER + INTRA:          -9.109
REMARK INTER:                  -8.753
REMARK INTRA:                  -0.356
REMARK UNBOUND:                -0.356
REMARK SMILES CCNC(=O)NC(=O)C[NH+](C)C1CCC(C)CC1
REMARK SMILES IDX 9 1 7 2 3 3 4 4 5 5 6 6 8 7 2 10 1 11 10 12 11 13 12 15
REMARK SMILES IDX 13 16 18 17 14 18 17 19 15 20 16 21
REMARK H PARENT 3 8 6 9 10 14
ROOT
ATOM      1  C   UNL     1      51.960  51.155  20.648  1.00  0.00    +0.364 C 
ENDROOT
BRANCH   1   2
ATOM      2  C   UNL     1      52.098  50.003  19.645  1.00  0.00    +0.283 C 
ATOM      3  N   UNL     1      48.935  48.701  18.895  1.00  0.00    -0.338 N 
ATOM      4  C   UNL     1      49.956  49.618  18.898  1.00  0.00    +0.321 C 
ATOM      5  O   UNL     1      49.885  50.757  18.453  1.00  0.00    -0.248 OA
ATOM      6  N   UNL     1      51.060  49.124  19.543  1.00  0.00    -0.273 N 
ATOM      7  O   UNL     1      53.105  49.957  18.932  1.00  0.00    -0.268 OA
ATOM      8  H   UNL     1      49.258  47.744  18.791  1.00  0.00    +0.165 HD
ATOM      9  H   UNL     1      50.733  48.727  20.416  1.00  0.00    +0.175 HD
BRANCH   3  10
ATOM     10  C   UNL     1      47.710  48.990  18.161  1.00  0.00    +0.114 C 
ATOM     11  C   UNL     1      46.529  48.250  18.761  1.00  0.00    +0.027 C 
ENDBRANCH   3  10
ENDBRANCH   1   2
BRANCH   1  12
ATOM     12  N   UNL     1      51.600  52.446  19.878  1.00  0.00    -0.327 N 
ATOM     13  C   UNL     1      52.794  53.056  19.203  1.00  0.00    +0.333 C 
ATOM     14  H   UNL     1      51.024  52.078  19.093  1.00  0.00    +0.348 HD
BRANCH  12  15
ATOM     15  C   UNL     1      50.667  53.365  20.654  1.00  0.00    +0.184 C 
ATOM     16  C   UNL     1      50.184  54.513  19.754  1.00  0.00    +0.065 C 
ATOM     17  C   UNL     1      51.303  53.837  21.973  1.00  0.00    +0.065 C 
ATOM     18  C   UNL     1      49.572  55.634  20.593  1.00  0.00    +0.009 C 
ATOM     19  C   UNL     1      51.757  55.294  21.903  1.00  0.00    +0.009 C 
ATOM     20  C   UNL     1      50.584  56.241  21.584  1.00  0.00    -0.014 C 
ATOM     21  C   UNL     1      51.117  57.586  21.088  1.00  0.00    +0.007 C 
ENDBRANCH  12  15
ENDBRANCH   1  12
TORSDOF 4
ENDMDL
MODEL 2
REMARK VINA RESULT:    -7.053      1.888      6.387
REMARK INTER + INTRA:          -9.058
REMARK INTER:                  -8.773
REMARK INTRA:                  -0.285
REMARK UNBOUND:                -0.356
REMARK SMILES CCNC(=O)NC(=O)C[NH+](C)C1CCC(C)CC1
REMARK SMILES IDX 9 1 7 2 3 3 4 4 5 5 6 6 8 7 2 10 1 11 10 12 11 13 12 15
REMARK SMILES IDX 13 16 18 17 14 18 17 19 15 20 16 21
REMARK H PARENT 3 8 6 9 10 14
ROOT
ATOM      1  C   UNL     1      50.569  50.932  19.747  1.00  0.00    +0.364 C 
ENDROOT
BRANCH   1   2
ATOM      2  C   UNL     1      52.002  51.410  20.011  1.00  0.00    +0.283 C 
ATOM      3  N   UNL     1      51.948  54.672  21.282  1.00  0.00    -0.338 N 
ATOM      4  C   UNL     1      51.760  53.313  21.282  1.00  0.00    +0.321 C 
ATOM      5  O   UNL     1      51.198  52.676  22.165  1.00  0.00    -0.248 OA
ATOM      6  N   UNL     1      52.214  52.753  20.115  1.00  0.00    -0.273 N 
ATOM      7  O   UNL     1      52.885  50.564  20.182  1.00  0.00    -0.268 OA
ATOM      8  H   UNL     1      52.811  54.956  20.828  1.00  0.00    +0.165 HD
ATOM      9  H   UNL     1      51.842  53.316  19.359  1.00  0.00    +0.175 HD
BRANCH   3  10
ATOM     10  C   UNL     1      51.634  55.442  22.479  1.00  0.00    +0.114 C 
ATOM     11  C   UNL     1      50.910  56.727  22.124  1.00  0.00    +0.027 C 
ENDBRANCH   3  10
ENDBRANCH   1   2
BRANCH   1  12
ATOM     12  N   UNL     1      50.189  51.279  18.289  1.00  0.00    -0.327 N 
ATOM     13  C   UNL     1      49.537  52.626  18.177  1.00  0.00    +0.333 C 
ATOM     14  H   UNL     1      51.122  51.409  17.846  1.00  0.00    +0.348 HD
BRANCH  12  15
ATOM     15  C   UNL     1      49.557  50.112  17.542  1.00  0.00    +0.184 C 
ATOM     16  C   UNL     1      48.402  50.610  16.661  1.00  0.00    +0.065 C 
ATOM     17  C   UNL     1      49.161  48.973  18.498  1.00  0.00    +0.065 C 
ATOM     18  C   UNL     1      47.526  49.442  16.211  1.00  0.00    +0.009 C 
ATOM     19  C   UNL     1      47.652  48.909  18.721  1.00  0.00    +0.009 C 
ATOM     20  C   UNL     1      46.889  48.697  17.400  1.00  0.00    -0.014 C 
ATOM     21  C   UNL     1      45.418  49.077  17.578  1.00  0.00    +0.007 C 
ENDBRANCH  12  15
ENDBRANCH   1  12
TORSDOF 4
ENDMDL
MODEL 3
REMARK VINA RESULT:    -7.002      1.285      1.907
REMARK INTER + INTRA:          -8.996
REMARK INTER:                  -8.642
REMARK INTRA:                  -0.354
REMARK UNBOUND:                -0.356
REMARK SMILES CCNC(=O)NC(=O)C[NH+](C)C1CCC(C)CC1
REMARK SMILES IDX 9 1 7 2 3 3 4 4 5 5 6 6 8 7 2 10 1 11 10 12 11 13 12 15
REMARK SMILES IDX 13 16 18 17 14 18 17 19 15 20 16 21
REMARK H PARENT 3 8 6 9 10 14
ROOT
ATOM      1  C   UNL     1      51.073  52.618  19.290  1.00  0.00    +0.364 C 
ENDROOT
BRANCH   1   2
ATOM      2  C   UNL     1      51.756  51.405  18.647  1.00  0.00    +0.283 C 
ATOM      3  N   UNL     1      49.505  48.726  18.487  1.00  0.00    -0.338 N 
ATOM      4  C   UNL     1      50.037  49.951  18.169  1.00  0.00    +0.321 C 
ATOM      5  O   UNL     1      49.519  50.776  17.425  1.00  0.00    -0.248 OA
ATOM      6  N   UNL     1      51.199  50.178  18.860  1.00  0.00    -0.273 N 
ATOM      7  O   UNL     1      52.733  51.594  17.916  1.00  0.00    -0.268 OA
ATOM      8  H   UNL     1      50.210  48.012  18.637  1.00  0.00    +0.165 HD
ATOM      9  H   UNL     1      51.012  49.942  19.827  1.00  0.00    +0.175 HD
BRANCH   3  10
ATOM     10  C   UNL     1      48.326  48.248  17.776  1.00  0.00    +0.114 C 
ATOM     11  C   UNL     1      47.068  48.481  18.591  1.00  0.00    +0.027 C 
ENDBRANCH   3  10
ENDBRANCH   1   2
BRANCH   1  12
ATOM     12  N   UNL     1      51.887  53.048  20.532  1.00  0.00    -0.327 N 
ATOM     13  C   UNL     1      51.469  52.308  21.769  1.00  0.00    +0.333 C 
ATOM     14  H   UNL     1      52.832  52.668  20.315  1.00  0.00    +0.348 HD
BRANCH  12  15
ATOM     15  C   UNL     1      52.080  54.554  20.628  1.00  0.00    +0.184 C 
ATOM     16  C   UNL     1      51.557  55.071  21.977  1.00  0.00    +0.065 C 
ATOM     17  C   UNL     1      51.482  55.283  19.412  1.00  0.00    +0.065 C 
ATOM     18  C   UNL     1      51.389  56.590  21.944  1.00  0.00    +0.009 C 
ATOM     19  C   UNL     1      50.178  56.000  19.756  1.00  0.00    +0.009 C 
ATOM     20  C   UNL     1      50.378  57.042  20.872  1.00  0.00    -0.014 C 
ATOM     21  C   UNL     1      49.030  57.410  21.493  1.00  0.00    +0.007 C 
ENDBRANCH  12  15
ENDBRANCH   1  12
TORSDOF 4
ENDMDL
MODEL 4
REMARK VINA RESULT:    -6.900      1.898      2.412
REMARK INTER + INTRA:          -8.870
REMARK INTER:                  -8.473
REMARK INTRA:                  -0.396
REMARK UNBOUND:                -0.356
REMARK SMILES CCNC(=O)NC(=O)C[NH+](C)C1CCC(C)CC1
REMARK SMILES IDX 9 1 7 2 3 3 4 4 5 5 6 6 8 7 2 10 1 11 10 12 11 13 12 15
REMARK SMILES IDX 13 16 18 17 14 18 17 19 15 20 16 21
REMARK H PARENT 3 8 6 9 10 14
ROOT
ATOM      1  C   UNL     1      52.123  53.426  20.054  1.00  0.00    +0.364 C 
ENDROOT
BRANCH   1   2
ATOM      2  C   UNL     1      52.587  52.583  18.860  1.00  0.00    +0.283 C 
ATOM      3  N   UNL     1      50.328  49.964  18.311  1.00  0.00    -0.338 N 
ATOM      4  C   UNL     1      50.777  51.261  18.340  1.00  0.00    +0.321 C 
ATOM      5  O   UNL     1      50.095  52.252  18.108  1.00  0.00    -0.248 OA
ATOM      6  N   UNL     1      52.086  51.320  18.744  1.00  0.00    -0.273 N 
ATOM      7  O   UNL     1      53.336  53.100  18.026  1.00  0.00    -0.268 OA
ATOM      8  H   UNL     1      51.035  49.303  18.004  1.00  0.00    +0.165 HD
ATOM      9  H   UNL     1      52.161  50.739  19.571  1.00  0.00    +0.175 HD
BRANCH   3  10
ATOM     10  C   UNL     1      48.994  49.676  17.800  1.00  0.00    +0.114 C 
ATOM     11  C   UNL     1      48.712  48.185  17.827  1.00  0.00    +0.027 C 
ENDBRANCH   3  10
ENDBRANCH   1   2
BRANCH   1  12
ATOM     12  N   UNL     1      51.394  54.682  19.524  1.00  0.00    -0.327 N 
ATOM     13  C   UNL     1      52.328  55.840  19.327  1.00  0.00    +0.333 C 
ATOM     14  H   UNL     1      51.138  54.393  18.558  1.00  0.00    +0.348 HD
BRANCH  12  15
ATOM     15  C   UNL     1      50.067  54.942  20.223  1.00  0.00    +0.184 C 
ATOM     16  C   UNL     1      49.021  55.431  19.209  1.00  0.00    +0.065 C 
ATOM     17  C   UNL     1      50.236  55.874  21.436  1.00  0.00    +0.065 C 
ATOM     18  C   UNL     1      47.824  56.052  19.927  1.00  0.00    +0.009 C 
ATOM     19  C   UNL     1      49.716  57.282  21.156  1.00  0.00    +0.009 C 
ATOM     20  C   UNL     1      48.222  57.273  20.778  1.00  0.00    -0.014 C 
ATOM     21  C   UNL     1      47.849  58.585  20.087  1.00  0.00    +0.007 C 
ENDBRANCH  12  15
ENDBRANCH   1  12
TORSDOF 4
ENDMDL
MODEL 5
REMARK VINA RESULT:    -6.806      1.964      7.012
REMARK INTER + INTRA:          -8.754
REMARK INTER:                  -8.391
REMARK INTRA:                  -0.363
REMARK UNBOUND:                -0.356
REMARK SMILES CCNC(=O)NC(=O)C[NH+](C)C1CCC(C)CC1
REMARK SMILES IDX 9 1 7 2 3 3 4 4 5 5 6 6 8 7 2 10 1 11 10 12 11 13 12 15
REMARK SMILES IDX 13 16 18 17 14 18 17 19 15 20 16 21
REMARK H PARENT 3 8 6 9 10 14
ROOT
ATOM      1  C   UNL     1      50.493  50.448  18.436  1.00  0.00    +0.364 C 
ENDROOT
BRANCH   1   2
ATOM      2  C   UNL     1      51.776  51.174  18.013  1.00  0.00    +0.283 C 
ATOM      3  N   UNL     1      51.794  54.416  19.337  1.00  0.00    -0.338 N 
ATOM      4  C   UNL     1      51.857  53.045  19.350  1.00  0.00    +0.321 C 
ATOM      5  O   UNL     1      51.901  52.349  20.357  1.00  0.00    -0.248 OA
ATOM      6  N   UNL     1      51.785  52.536  18.079  1.00  0.00    -0.273 N 
ATOM      7  O   UNL     1      52.761  50.500  17.697  1.00  0.00    -0.268 OA
ATOM      8  H   UNL     1      52.274  54.831  18.543  1.00  0.00    +0.165 HD
ATOM      9  H   UNL     1      51.010  53.003  17.624  1.00  0.00    +0.175 HD
BRANCH   3  10
ATOM     10  C   UNL     1      51.967  55.157  20.580  1.00  0.00    +0.114 C 
ATOM     11  C   UNL     1      52.451  56.569  20.308  1.00  0.00    +0.027 C 
ENDBRANCH   3  10
ENDBRANCH   1   2
BRANCH   1  12
ATOM     12  N   UNL     1      49.932  49.678  17.219  1.00  0.00    -0.327 N 
ATOM     13  C   UNL     1      49.476  50.598  16.125  1.00  0.00    +0.333 C 
ATOM     14  H   UNL     1      50.788  49.227  16.833  1.00  0.00    +0.348 HD
BRANCH  12  15
ATOM     15  C   UNL     1      49.022  48.523  17.611  1.00  0.00    +0.184 C 
ATOM     16  C   UNL     1      48.437  47.858  16.355  1.00  0.00    +0.065 C 
ATOM     17  C   UNL     1      47.957  48.960  18.633  1.00  0.00    +0.065 C 
ATOM     18  C   UNL     1      47.250  46.968  16.719  1.00  0.00    +0.009 C 
ATOM     19  C   UNL     1      46.573  49.091  18.000  1.00  0.00    +0.009 C 
ATOM     20  C   UNL     1      46.104  47.763  17.376  1.00  0.00    -0.014 C 
ATOM     21  C   UNL     1      44.964  48.021  16.390  1.00  0.00    +0.007 C 
ENDBRANCH  12  15
ENDBRANCH   1  12
TORSDOF 4
ENDMDL
