MODEL 1
REMARK VINA RESULT:    -7.478      0.000      0.000
REMARK INTER + INTRA:         -11.760
REMARK INTER:                 -10.539
REMARK INTRA:                  -1.222
REMARK UNBOUND:                -1.222
REMARK SMILES CC[C@H](C)[C@@H](C)Nc1ccc(S(=O)(=O)NC2CC2)cc1
REMARK SMILES IDX 7 1 5 3 6 4 3 5 4 6 2 7 1 8 8 9 9 10 20 11 10 12 19 13 11 14
REMARK SMILES IDX 12 15 13 16 14 17 15 18 16 20 17 21 18 22
REMARK H PARENT 7 2 15 19
ROOT
ATOM      1  N   UNL     1      51.416  55.725  21.827  1.00  0.00    -0.382 N 
ATOM      2  H   UNL     1      51.099  55.669  22.790  1.00  0.00    +0.160 HD
ENDROOT
BRANCH   1   3
ATOM      3  C   UNL     1      50.843  56.840  21.060  1.00  0.00    +0.078 C 
ATOM      4  C   UNL     1      51.651  58.095  21.410  1.00  0.00    +0.031 C 
BRANCH   3   5
ATOM      5  C   UNL     1      49.325  56.978  21.403  1.00  0.00    +0.008 C 
ATOM      6  C   UNL     1      48.990  58.363  21.974  1.00  0.00    +0.010 C 
BRANCH   5   7
ATOM      7  C   UNL     1      48.465  56.687  20.146  1.00  0.00    +0.002 C 
ATOM      8  C   UNL     1      48.435  55.218  19.744  1.00  0.00    +0.004 C 
ENDBRANCH   5   7
ENDBRANCH   3   5
ENDBRANCH   1   3
BRANCH   1   9
ATOM      9  C   UNL     1      51.690  54.487  21.253  1.00  0.00    +0.034 A 
ATOM     10  C   UNL     1      52.070  54.444  19.902  1.00  0.00    +0.027 A 
ATOM     11  C   UNL     1      51.507  53.267  21.915  1.00  0.00    +0.027 A 
ATOM     12  C   UNL     1      52.314  53.233  19.245  1.00  0.00    +0.024 A 
ATOM     13  C   UNL     1      51.746  52.046  21.273  1.00  0.00    +0.024 A 
ATOM     14  C   UNL     1      52.147  52.037  19.939  1.00  0.00    +0.082 A 
BRANCH  14  15
ATOM     15  S   UNL     1      52.460  50.487  19.137  1.00  0.00    +0.240 S 
ATOM     16  O   UNL     1      53.291  49.697  20.019  1.00  0.00    -0.207 OA
ATOM     17  O   UNL     1      52.828  50.746  17.762  1.00  0.00    -0.207 OA
BRANCH  15  18
ATOM     18  N   UNL     1      50.889  49.830  19.083  1.00  0.00    -0.208 NA
ATOM     19  H   UNL     1      50.431  50.061  19.968  1.00  0.00    +0.141 HD
BRANCH  18  20
ATOM     20  C   UNL     1      50.092  50.265  17.926  1.00  0.00    +0.070 C 
ATOM     21  C   UNL     1      48.598  50.104  17.929  1.00  0.00    +0.022 C 
ATOM     22  C   UNL     1      49.207  51.476  17.997  1.00  0.00    +0.022 C 
ENDBRANCH  18  20
ENDBRANCH  15  18
ENDBRANCH  14  15
ENDBRANCH   1   9
TORSDOF 7
ENDMDL
MODEL 2
REMARK VINA RESULT:    -6.845      3.068      7.276
REMARK INTER + INTRA:         -10.868
REMARK INTER:                  -9.966
REMARK INTRA:                  -0.902
REMARK UNBOUND:                -1.222
REMARK SMILES CC[C@H](C)[C@@H](C)Nc1ccc(S(=O)(=O)NC2CC2)cc1
REMARK SMILES IDX 7 1 5 3 6 4 3 5 4 6 2 7 1 8 8 9 9 10 20 11 10 12 19 13 11 14
REMARK SMILES IDX 12 15 13 16 14 17 15 18 16 20 17 21 18 22
REMARK H PARENT 7 2 15 19
ROOT
ATOM      1  N   UNL     1      48.135  50.892  15.996  1.00  0.00    -0.382 N 
ATOM      2  H   UNL     1      47.532  51.307  15.292  1.00  0.00    +0.160 HD
ENDROOT
BRANCH   1   3
ATOM      3  C   UNL     1      47.776  49.518  16.373  1.00  0.00    +0.078 C 
ATOM      4  C   UNL     1      47.131  48.863  15.147  1.00  0.00    +0.031 C 
BRANCH   3   5
ATOM      5  C   UNL     1      46.826  49.553  17.614  1.00  0.00    +0.008 C 
ATOM      6  C   UNL     1      45.390  49.151  17.247  1.00  0.00    +0.010 C 
BRANCH   5   7
ATOM      7  C   UNL     1      47.377  48.635  18.735  1.00  0.00    +0.002 C 
ATOM      8  C   UNL     1      48.898  48.593  18.807  1.00  0.00    +0.004 C 
ENDBRANCH   5   7
ENDBRANCH   3   5
ENDBRANCH   1   3
BRANCH   1   9
ATOM      9  C   UNL     1      48.642  51.810  16.911  1.00  0.00    +0.034 A 
ATOM     10  C   UNL     1      47.968  53.031  17.077  1.00  0.00    +0.027 A 
ATOM     11  C   UNL     1      49.848  51.634  17.600  1.00  0.00    +0.027 A 
ATOM     12  C   UNL     1      48.446  54.022  17.942  1.00  0.00    +0.024 A 
ATOM     13  C   UNL     1      50.341  52.615  18.469  1.00  0.00    +0.024 A 
ATOM     14  C   UNL     1      49.636  53.806  18.633  1.00  0.00    +0.082 A 
BRANCH  14  15
ATOM     15  S   UNL     1      50.260  55.038  19.744  1.00  0.00    +0.240 S 
ATOM     16  O   UNL     1      51.233  55.828  19.022  1.00  0.00    -0.207 OA
ATOM     17  O   UNL     1      50.572  54.403  21.007  1.00  0.00    -0.207 OA
BRANCH  15  18
ATOM     18  N   UNL     1      48.857  55.964  20.021  1.00  0.00    -0.208 NA
ATOM     19  H   UNL     1      48.315  55.487  20.746  1.00  0.00    +0.141 HD
BRANCH  18  20
ATOM     20  C   UNL     1      49.120  57.368  20.373  1.00  0.00    +0.070 C 
ATOM     21  C   UNL     1      48.153  58.128  21.236  1.00  0.00    +0.022 C 
ATOM     22  C   UNL     1      49.511  57.765  21.766  1.00  0.00    +0.022 C 
ENDBRANCH  18  20
ENDBRANCH  15  18
ENDBRANCH  14  15
ENDBRANCH   1   9
TORSDOF 7
ENDMDL
MODEL 3
REMARK VINA RESULT:    -6.755      2.902      6.441
REMARK INTER + INTRA:         -10.741
REMARK INTER:                  -9.955
REMARK INTRA:                  -0.786
REMARK UNBOUND:                -1.222
REMARK SMILES CC[C@H](C)[C@@H](C)Nc1ccc(S(=O)(=O)NC2CC2)cc1
REMARK SMILES IDX 7 1 5 3 6 4 3 5 4 6 2 7 1 8 8 9 9 10 20 11 10 12 19 13 11 14
REMARK SMILES IDX 12 15 13 16 14 17 15 18 16 20 17 21 18 22
REMARK H PARENT 7 2 15 19
ROOT
ATOM      1  N   UNL     1      51.294  50.954  19.071  1.00  0.00    -0.382 N 
ATOM      2  H   UNL     1      51.590  50.876  18.102  1.00  0.00    +0.160 HD
ENDROOT
BRANCH   1   3
ATOM      3  C   UNL     1      50.117  50.145  19.416  1.00  0.00    +0.078 C 
ATOM      4  C   UNL     1      50.625  48.882  20.119  1.00  0.00    +0.031 C 
BRANCH   3   5
ATOM      5  C   UNL     1      49.304  49.835  18.118  1.00  0.00    +0.008 C 
ATOM      6  C   UNL     1      48.310  48.684  18.328  1.00  0.00    +0.010 C 
BRANCH   5   7
ATOM      7  C   UNL     1      48.564  51.109  17.634  1.00  0.00    +0.002 C 
ATOM      8  C   UNL     1      47.756  50.907  16.359  1.00  0.00    +0.004 C 
ENDBRANCH   5   7
ENDBRANCH   3   5
ENDBRANCH   1   3
BRANCH   1   9
ATOM      9  C   UNL     1      51.530  52.207  19.630  1.00  0.00    +0.034 A 
ATOM     10  C   UNL     1      51.067  52.457  20.932  1.00  0.00    +0.027 A 
ATOM     11  C   UNL     1      52.110  53.273  18.931  1.00  0.00    +0.027 A 
ATOM     12  C   UNL     1      51.225  53.707  21.540  1.00  0.00    +0.024 A 
ATOM     13  C   UNL     1      52.275  54.530  19.524  1.00  0.00    +0.024 A 
ATOM     14  C   UNL     1      51.829  54.740  20.828  1.00  0.00    +0.082 A 
BRANCH  14  15
ATOM     15  S   UNL     1      52.053  56.331  21.576  1.00  0.00    +0.240 S 
ATOM     16  O   UNL     1      53.361  56.815  21.194  1.00  0.00    -0.207 OA
ATOM     17  O   UNL     1      51.638  56.251  22.959  1.00  0.00    -0.207 OA
BRANCH  15  18
ATOM     18  N   UNL     1      50.848  57.234  20.778  1.00  0.00    -0.208 NA
ATOM     19  H   UNL     1      50.935  57.042  19.778  1.00  0.00    +0.141 HD
BRANCH  18  20
ATOM     20  C   UNL     1      49.483  56.982  21.266  1.00  0.00    +0.070 C 
ATOM     21  C   UNL     1      48.501  58.113  21.390  1.00  0.00    +0.022 C 
ATOM     22  C   UNL     1      48.299  57.052  20.346  1.00  0.00    +0.022 C 
ENDBRANCH  18  20
ENDBRANCH  15  18
ENDBRANCH  14  15
ENDBRANCH   1   9
TORSDOF 7
ENDMDL
MODEL 4
REMARK VINA RESULT:    -6.518      2.405      3.592
REMARK INTER + INTRA:         -10.408
REMARK INTER:                  -9.574
REMARK INTRA:                  -0.833
REMARK UNBOUND:                -1.222
REMARK SMILES CC[C@H](C)[C@@H](C)Nc1ccc(S(=O)(=O)NC2CC2)cc1
REMARK SMILES IDX 7 1 5 3 6 4 3 5 4 6 2 7 1 8 8 9 9 10 20 11 10 12 19 13 11 14
REMARK SMILES IDX 12 15 13 16 14 17 15 18 16 20 17 21 18 22
REMARK H PARENT 7 2 15 19
ROOT
ATOM      1  N   UNL     1      49.835  56.315  19.546  1.00  0.00    -0.382 N 
ATOM      2  H   UNL     1      50.580  56.897  19.176  1.00  0.00    +0.160 HD
ENDROOT
BRANCH   1   3
ATOM      3  C   UNL     1      49.578  56.492  20.982  1.00  0.00    +0.078 C 
ATOM      4  C   UNL     1      48.457  57.528  21.119  1.00  0.00    +0.031 C 
BRANCH   3   5
ATOM      5  C   UNL     1      50.900  56.927  21.694  1.00  0.00    +0.008 C 
ATOM      6  C   UNL     1      51.617  55.736  22.345  1.00  0.00    +0.010 C 
BRANCH   5   7
ATOM      7  C   UNL     1      51.838  57.641  20.688  1.00  0.00    +0.002 C 
ATOM      8  C   UNL     1      53.248  57.065  20.641  1.00  0.00    +0.004 C 
ENDBRANCH   5   7
ENDBRANCH   3   5
ENDBRANCH   1   3
BRANCH   1   9
ATOM      9  C   UNL     1      49.720  55.081  18.913  1.00  0.00    +0.034 A 
ATOM     10  C   UNL     1      48.707  54.911  17.954  1.00  0.00    +0.027 A 
ATOM     11  C   UNL     1      50.489  53.960  19.251  1.00  0.00    +0.027 A 
ATOM     12  C   UNL     1      48.501  53.686  17.313  1.00  0.00    +0.024 A 
ATOM     13  C   UNL     1      50.295  52.726  18.619  1.00  0.00    +0.024 A 
ATOM     14  C   UNL     1      49.300  52.596  17.653  1.00  0.00    +0.082 A 
BRANCH  14  15
ATOM     15  S   UNL     1      49.069  51.033  16.849  1.00  0.00    +0.240 S 
ATOM     16  O   UNL     1      50.372  50.422  16.697  1.00  0.00    -0.207 OA
ATOM     17  O   UNL     1      48.173  51.220  15.728  1.00  0.00    -0.207 OA
BRANCH  15  18
ATOM     18  N   UNL     1      48.172  50.193  18.029  1.00  0.00    -0.208 NA
ATOM     19  H   UNL     1      47.677  50.890  18.589  1.00  0.00    +0.141 HD
BRANCH  18  20
ATOM     20  C   UNL     1      47.254  49.181  17.481  1.00  0.00    +0.070 C 
ATOM     21  C   UNL     1      46.427  48.330  18.403  1.00  0.00    +0.022 C 
ATOM     22  C   UNL     1      45.765  49.364  17.538  1.00  0.00    +0.022 C 
ENDBRANCH  18  20
ENDBRANCH  15  18
ENDBRANCH  14  15
ENDBRANCH   1   9
TORSDOF 7
ENDMDL
MODEL 5
REMARK VINA RESULT:    -6.489      3.117      4.363
REMARK INTER + INTRA:         -10.366
REMARK INTER:                  -9.665
REMARK INTRA:                  -0.700
REMARK UNBOUND:                -1.222
REMARK SMILES CC[C@H](C)[C@@H](C)Nc1ccc(S(=O)(=O)NC2CC2)cc1
REMARK SMILES IDX 7 1 5 3 6 4 3 5 4 6 2 7 1 8 8 9 9 10 20 11 10 12 19 13 11 14
REMARK SMILES IDX 12 15 13 16 14 17 15 18 16 20 17 21 18 22
REMARK H PARENT 7 2 15 19
ROOT
ATOM      1  N   UNL     1      49.368  54.835  18.242  1.00  0.00    -0.382 N 
ATOM      2  H   UNL     1      50.315  55.053  18.538  1.00  0.00    +0.160 HD
ENDROOT
BRANCH   1   3
ATOM      3  C   UNL     1      48.339  55.737  18.777  1.00  0.00    +0.078 C 
ATOM      4  C   UNL     1      48.327  56.988  17.891  1.00  0.00    +0.031 C 
BRANCH   3   5
ATOM      5  C   UNL     1      48.655  56.054  20.274  1.00  0.00    +0.008 C 
ATOM      6  C   UNL     1      50.146  55.877  20.594  1.00  0.00    +0.010 C 
BRANCH   5   7
ATOM      7  C   UNL     1      48.193  57.492  20.625  1.00  0.00    +0.002 C 
ATOM      8  C   UNL     1      48.929  58.106  21.808  1.00  0.00    +0.004 C 
ENDBRANCH   5   7
ENDBRANCH   3   5
ENDBRANCH   1   3
BRANCH   1   9
ATOM      9  C   UNL     1      49.141  53.476  18.046  1.00  0.00    +0.034 A 
ATOM     10  C   UNL     1      47.930  53.077  17.456  1.00  0.00    +0.027 A 
ATOM     11  C   UNL     1      50.004  52.471  18.500  1.00  0.00    +0.027 A 
ATOM     12  C   UNL     1      47.612  51.728  17.272  1.00  0.00    +0.024 A 
ATOM     13  C   UNL     1      49.701  51.115  18.324  1.00  0.00    +0.024 A 
ATOM     14  C   UNL     1      48.503  50.752  17.711  1.00  0.00    +0.082 A 
BRANCH  14  15
ATOM     15  S   UNL     1      48.133  49.033  17.482  1.00  0.00    +0.240 S 
ATOM     16  O   UNL     1      49.247  48.271  18.002  1.00  0.00    -0.207 OA
ATOM     17  O   UNL     1      47.635  48.846  16.136  1.00  0.00    -0.207 OA
BRANCH  15  18
ATOM     18  N   UNL     1      46.784  48.855  18.507  1.00  0.00    -0.208 NA
ATOM     19  H   UNL     1      46.244  49.722  18.454  1.00  0.00    +0.141 HD
BRANCH  18  20
ATOM     20  C   UNL     1      45.954  47.676  18.212  1.00  0.00    +0.070 C 
ATOM     21  C   UNL     1      44.909  47.220  19.191  1.00  0.00    +0.022 C 
ATOM     22  C   UNL     1      44.498  47.810  17.872  1.00  0.00    +0.022 C 
ENDBRANCH  18  20
ENDBRANCH  15  18
ENDBRANCH  14  15
ENDBRANCH   1   9
TORSDOF 7
ENDMDL
