MODEL 1
REMARK VINA RESULT:    -6.822      0.000      0.000
REMARK INTER + INTRA:         -10.701
REMARK INTER:                  -9.614
REMARK INTRA:                  -1.087
REMARK UNBOUND:                -1.087
REMARK SMILES CCC[C@H](NC(N)=O)C(=O)N(C)CC1CCCCC1
REMARK SMILES IDX 9 1 10 2 4 3 3 4 2 5 1 6 5 7 6 8 8 9 7 10 11 14 12 15 13 16
REMARK SMILES IDX 14 17 15 18 19 19 16 20 18 21 17 22
REMARK H PARENT 5 11 7 12 7 13
ROOT
ATOM      1  C   UNL     1      50.780  53.067  18.779  1.00  0.00    +0.244 C 
ATOM      2  O   UNL     1      51.882  53.435  18.363  1.00  0.00    -0.273 OA
ENDROOT
BRANCH   1   3
ATOM      3  C   UNL     1      50.669  51.995  19.897  1.00  0.00    +0.173 C 
BRANCH   3   4
ATOM      4  C   UNL     1      50.456  52.610  21.298  1.00  0.00    +0.035 C 
BRANCH   4   5
ATOM      5  C   UNL     1      51.722  53.051  22.047  1.00  0.00    -0.001 C 
ATOM      6  C   UNL     1      51.650  54.477  22.578  1.00  0.00    +0.004 C 
ENDBRANCH   4   5
ENDBRANCH   3   4
BRANCH   3   7
ATOM      7  N   UNL     1      51.824  51.103  19.852  1.00  0.00    -0.327 N 
ATOM      8  C   UNL     1      51.670  49.755  19.762  1.00  0.00    +0.312 C 
ATOM      9  O   UNL     1      50.612  49.167  19.604  1.00  0.00    -0.249 OA
ATOM     10  N   UNL     1      52.850  49.095  19.853  1.00  0.00    -0.352 N 
ATOM     11  H   UNL     1      52.665  51.426  20.308  1.00  0.00    +0.166 HD
ATOM     12  H   UNL     1      52.760  48.103  19.669  1.00  0.00    +0.161 HD
ATOM     13  H   UNL     1      53.648  49.528  19.413  1.00  0.00    +0.161 HD
ENDBRANCH   3   7
ENDBRANCH   1   3
BRANCH   1  14
ATOM     14  N   UNL     1      49.598  53.611  18.269  1.00  0.00    -0.344 N 
ATOM     15  C   UNL     1      48.512  52.825  17.696  1.00  0.00    +0.146 C 
BRANCH  14  16
ATOM     16  C   UNL     1      49.482  55.068  18.165  1.00  0.00    +0.122 C 
BRANCH  16  17
ATOM     17  C   UNL     1      49.474  55.781  19.532  1.00  0.00    +0.008 C 
ATOM     18  C   UNL     1      48.331  56.795  19.667  1.00  0.00    +0.005 C 
ATOM     19  C   UNL     1      50.835  56.467  19.769  1.00  0.00    +0.005 C 
ATOM     20  C   UNL     1      48.285  57.425  21.063  1.00  0.00    +0.000 C 
ATOM     21  C   UNL     1      50.781  57.629  20.764  1.00  0.00    +0.000 C 
ATOM     22  C   UNL     1      49.644  57.475  21.762  1.00  0.00    +0.000 C 
ENDBRANCH  16  17
ENDBRANCH  14  16
ENDBRANCH   1  14
TORSDOF 7
ENDMDL
MODEL 2
REMARK VINA RESULT:    -6.584      2.699      3.851
REMARK INTER + INTRA:         -10.364
REMARK INTER:                  -9.823
REMARK INTRA:                  -0.541
REMARK UNBOUND:                -1.087
REMARK SMILES CCC[C@H](NC(N)=O)C(=O)N(C)CC1CCCCC1
REMARK SMILES IDX 9 1 10 2 4 3 3 4 2 5 1 6 5 7 6 8 8 9 7 10 11 14 12 15 13 16
REMARK SMILES IDX 14 17 15 18 19 19 16 20 18 21 17 22
REMARK H PARENT 5 11 7 12 7 13
ROOT
ATOM      1  C   UNL     1      49.989  52.458  18.039  1.00  0.00    +0.244 C 
ATOM      2  O   UNL     1      49.197  53.270  17.552  1.00  0.00    -0.273 OA
ENDROOT
BRANCH   1   3
ATOM      3  C   UNL     1      49.910  50.951  17.674  1.00  0.00    +0.173 C 
BRANCH   3   4
ATOM      4  C   UNL     1      50.077  50.028  18.901  1.00  0.00    +0.035 C 
BRANCH   4   5
ATOM      5  C   UNL     1      49.163  48.795  18.955  1.00  0.00    -0.001 C 
ATOM      6  C   UNL     1      47.755  49.057  18.436  1.00  0.00    +0.004 C 
ENDBRANCH   4   5
ENDBRANCH   3   4
BRANCH   3   7
ATOM      7  N   UNL     1      50.862  50.641  16.612  1.00  0.00    -0.327 N 
ATOM      8  C   UNL     1      50.456  50.080  15.443  1.00  0.00    +0.312 C 
ATOM      9  O   UNL     1      49.298  49.881  15.112  1.00  0.00    -0.249 OA
ATOM     10  N   UNL     1      51.497  49.761  14.636  1.00  0.00    -0.352 N 
ATOM     11  H   UNL     1      51.810  50.441  16.897  1.00  0.00    +0.166 HD
ATOM     12  H   UNL     1      51.201  49.452  13.717  1.00  0.00    +0.161 HD
ATOM     13  H   UNL     1      52.279  50.399  14.628  1.00  0.00    +0.161 HD
ENDBRANCH   3   7
ENDBRANCH   1   3
BRANCH   1  14
ATOM     14  N   UNL     1      50.992  52.870  18.922  1.00  0.00    -0.344 N 
ATOM     15  C   UNL     1      52.416  52.866  18.608  1.00  0.00    +0.146 C 
BRANCH  14  16
ATOM     16  C   UNL     1      50.624  53.196  20.302  1.00  0.00    +0.122 C 
BRANCH  16  17
ATOM     17  C   UNL     1      50.861  54.675  20.666  1.00  0.00    +0.008 C 
ATOM     18  C   UNL     1      51.363  54.860  22.103  1.00  0.00    +0.005 C 
ATOM     19  C   UNL     1      49.566  55.482  20.437  1.00  0.00    +0.005 C 
ATOM     20  C   UNL     1      51.680  56.326  22.416  1.00  0.00    +0.000 C 
ATOM     21  C   UNL     1      49.487  56.774  21.255  1.00  0.00    +0.000 C 
ATOM     22  C   UNL     1      50.864  57.323  21.594  1.00  0.00    +0.000 C 
ENDBRANCH  16  17
ENDBRANCH  14  16
ENDBRANCH   1  14
TORSDOF 7
ENDMDL
MODEL 3
REMARK VINA RESULT:    -6.540      2.656      5.890
REMARK INTER + INTRA:         -10.303
REMARK INTER:                  -9.554
REMARK INTRA:                  -0.748
REMARK UNBOUND:                -1.087
REMARK SMILES CCC[C@H](NC(N)=O)C(=O)N(C)CC1CCCCC1
REMARK SMILES IDX 9 1 10 2 4 3 3 4 2 5 1 6 5 7 6 8 8 9 7 10 11 14 12 15 13 16
REMARK SMILES IDX 14 17 15 18 19 19 16 20 18 21 17 22
REMARK H PARENT 5 11 7 12 7 13
ROOT
ATOM      1  C   UNL     1      51.152  54.080  19.734  1.00  0.00    +0.244 C 
ATOM      2  O   UNL     1      51.804  54.480  18.765  1.00  0.00    -0.273 OA
ENDROOT
BRANCH   1   3
ATOM      3  C   UNL     1      50.347  55.071  20.616  1.00  0.00    +0.173 C 
BRANCH   3   4
ATOM      4  C   UNL     1      48.966  55.421  20.019  1.00  0.00    +0.035 C 
BRANCH   4   5
ATOM      5  C   UNL     1      48.723  56.901  19.688  1.00  0.00    -0.001 C 
ATOM      6  C   UNL     1      47.664  57.557  20.565  1.00  0.00    +0.004 C 
ENDBRANCH   4   5
ENDBRANCH   3   4
BRANCH   3   7
ATOM      7  N   UNL     1      51.148  56.260  20.894  1.00  0.00    -0.327 N 
ATOM      8  C   UNL     1      51.881  56.365  22.034  1.00  0.00    +0.312 C 
ATOM      9  O   UNL     1      52.038  55.484  22.865  1.00  0.00    -0.249 OA
ATOM     10  N   UNL     1      52.458  57.584  22.164  1.00  0.00    -0.352 N 
ATOM     11  H   UNL     1      50.830  57.127  20.487  1.00  0.00    +0.166 HD
ATOM     12  H   UNL     1      53.099  57.633  22.948  1.00  0.00    +0.161 HD
ATOM     13  H   UNL     1      52.800  58.018  21.320  1.00  0.00    +0.161 HD
ENDBRANCH   3   7
ENDBRANCH   1   3
BRANCH   1  14
ATOM     14  N   UNL     1      51.105  52.721  20.060  1.00  0.00    -0.344 N 
ATOM     15  C   UNL     1      51.213  52.197  21.416  1.00  0.00    +0.146 C 
BRANCH  14  16
ATOM     16  C   UNL     1      51.089  51.737  18.974  1.00  0.00    +0.122 C 
BRANCH  16  17
ATOM     17  C   UNL     1      49.676  51.226  18.631  1.00  0.00    +0.008 C 
ATOM     18  C   UNL     1      49.572  49.696  18.668  1.00  0.00    +0.005 C 
ATOM     19  C   UNL     1      49.248  51.763  17.249  1.00  0.00    +0.005 C 
ATOM     20  C   UNL     1      48.141  49.212  18.416  1.00  0.00    +0.000 C 
ATOM     21  C   UNL     1      48.171  50.922  16.562  1.00  0.00    +0.000 C 
ATOM     22  C   UNL     1      47.308  50.168  17.561  1.00  0.00    +0.000 C 
ENDBRANCH  16  17
ENDBRANCH  14  16
ENDBRANCH   1  14
TORSDOF 7
ENDMDL
MODEL 4
REMARK VINA RESULT:    -6.478      1.415      2.929
REMARK INTER + INTRA:         -10.215
REMARK INTER:                  -9.660
REMARK INTRA:                  -0.555
REMARK UNBOUND:                -1.087
REMARK SMILES CCC[C@H](NC(N)=O)C(=O)N(C)CC1CCCCC1
REMARK SMILES IDX 9 1 10 2 4 3 3 4 2 5 1 6 5 7 6 8 8 9 7 10 11 14 12 15 13 16
REMARK SMILES IDX 14 17 15 18 19 19 16 20 18 21 17 22
REMARK H PARENT 5 11 7 12 7 13
ROOT
ATOM      1  C   UNL     1      52.106  53.268  19.226  1.00  0.00    +0.244 C 
ATOM      2  O   UNL     1      52.983  53.668  18.454  1.00  0.00    -0.273 OA
ENDROOT
BRANCH   1   3
ATOM      3  C   UNL     1      51.201  52.064  18.848  1.00  0.00    +0.173 C 
BRANCH   3   4
ATOM      4  C   UNL     1      49.695  52.381  18.981  1.00  0.00    +0.035 C 
BRANCH   4   5
ATOM      5  C   UNL     1      49.075  53.221  17.854  1.00  0.00    -0.001 C 
ATOM      6  C   UNL     1      48.441  52.386  16.749  1.00  0.00    +0.004 C 
ENDBRANCH   4   5
ENDBRANCH   3   4
BRANCH   3   7
ATOM      7  N   UNL     1      51.589  50.885  19.615  1.00  0.00    -0.327 N 
ATOM      8  C   UNL     1      52.521  50.014  19.145  1.00  0.00    +0.312 C 
ATOM      9  O   UNL     1      53.190  50.162  18.135  1.00  0.00    -0.249 OA
ATOM     10  N   UNL     1      52.658  48.926  19.942  1.00  0.00    -0.352 N 
ATOM     11  H   UNL     1      50.895  50.501  20.239  1.00  0.00    +0.166 HD
ATOM     12  H   UNL     1      53.430  48.331  19.665  1.00  0.00    +0.161 HD
ATOM     13  H   UNL     1      52.587  49.079  20.937  1.00  0.00    +0.161 HD
ENDBRANCH   3   7
ENDBRANCH   1   3
BRANCH   1  14
ATOM     14  N   UNL     1      51.908  53.875  20.470  1.00  0.00    -0.344 N 
ATOM     15  C   UNL     1      51.669  53.149  21.711  1.00  0.00    +0.146 C 
BRANCH  14  16
ATOM     16  C   UNL     1      51.788  55.334  20.528  1.00  0.00    +0.122 C 
BRANCH  16  17
ATOM     17  C   UNL     1      50.329  55.827  20.586  1.00  0.00    +0.008 C 
ATOM     18  C   UNL     1      49.829  56.361  19.238  1.00  0.00    +0.005 C 
ATOM     19  C   UNL     1      50.185  56.905  21.680  1.00  0.00    +0.005 C 
ATOM     20  C   UNL     1      48.350  56.760  19.291  1.00  0.00    +0.000 C 
ATOM     21  C   UNL     1      48.995  57.845  21.475  1.00  0.00    +0.000 C 
ATOM     22  C   UNL     1      47.877  57.188  20.681  1.00  0.00    +0.000 C 
ENDBRANCH  16  17
ENDBRANCH  14  16
ENDBRANCH   1  14
TORSDOF 7
ENDMDL
MODEL 5
REMARK VINA RESULT:    -6.208      3.534      6.185
REMARK INTER + INTRA:          -9.835
REMARK INTER:                  -9.285
REMARK INTRA:                  -0.550
REMARK UNBOUND:                -1.087
REMARK SMILES CCC[C@H](NC(N)=O)C(=O)N(C)CC1CCCCC1
REMARK SMILES IDX 9 1 10 2 4 3 3 4 2 5 1 6 5 7 6 8 8 9 7 10 11 14 12 15 13 16
REMARK SMILES IDX 14 17 15 18 19 19 16 20 18 21 17 22
REMARK H PARENT 5 11 7 12 7 13
ROOT
ATOM      1  C   UNL     1      49.571  51.637  18.062  1.00  0.00    +0.244 C 
ATOM      2  O   UNL     1      48.999  52.659  17.672  1.00  0.00    -0.273 OA
ENDROOT
BRANCH   1   3
ATOM      3  C   UNL     1      50.458  51.658  19.336  1.00  0.00    +0.173 C 
BRANCH   3   4
ATOM      4  C   UNL     1      50.943  53.077  19.706  1.00  0.00    +0.035 C 
BRANCH   4   5
ATOM      5  C   UNL     1      50.509  53.607  21.081  1.00  0.00    -0.001 C 
ATOM      6  C   UNL     1      51.516  53.324  22.189  1.00  0.00    +0.004 C 
ENDBRANCH   4   5
ENDBRANCH   3   4
BRANCH   3   7
ATOM      7  N   UNL     1      51.562  50.713  19.193  1.00  0.00    -0.327 N 
ATOM      8  C   UNL     1      51.694  49.652  20.032  1.00  0.00    +0.312 C 
ATOM      9  O   UNL     1      50.891  49.314  20.887  1.00  0.00    -0.249 OA
ATOM     10  N   UNL     1      52.840  48.963  19.814  1.00  0.00    -0.352 N 
ATOM     11  H   UNL     1      52.415  51.071  18.789  1.00  0.00    +0.166 HD
ATOM     12  H   UNL     1      52.892  48.106  20.352  1.00  0.00    +0.161 HD
ATOM     13  H   UNL     1      53.141  48.871  18.855  1.00  0.00    +0.161 HD
ENDBRANCH   3   7
ENDBRANCH   1   3
BRANCH   1  14
ATOM     14  N   UNL     1      49.428  50.425  17.379  1.00  0.00    -0.344 N 
ATOM     15  C   UNL     1      49.882  50.194  16.013  1.00  0.00    +0.146 C 
BRANCH  14  16
ATOM     16  C   UNL     1      48.651  49.353  18.004  1.00  0.00    +0.122 C 
BRANCH  16  17
ATOM     17  C   UNL     1      47.488  48.848  17.128  1.00  0.00    +0.008 C 
ATOM     18  C   UNL     1      46.125  48.974  17.819  1.00  0.00    +0.005 C 
ATOM     19  C   UNL     1      47.748  47.386  16.708  1.00  0.00    +0.005 C 
ATOM     20  C   UNL     1      44.974  48.554  16.899  1.00  0.00    +0.000 C 
ATOM     21  C   UNL     1      46.481  46.611  16.339  1.00  0.00    +0.000 C 
ATOM     22  C   UNL     1      45.374  47.527  15.840  1.00  0.00    +0.000 C 
ENDBRANCH  16  17
ENDBRANCH  14  16
ENDBRANCH   1  14
TORSDOF 7
ENDMDL
