MODEL 1
REMARK VINA RESULT:    -6.804      0.000      0.000
REMARK INTER + INTRA:          -8.227
REMARK INTER:                  -7.998
REMARK INTRA:                  -0.230
REMARK UNBOUND:                -0.230
REMARK SMILES CN1CC[C@H](C(=O)NNC(=O)NC2CC2)CC1=O
REMARK SMILES IDX 6 1 7 2 8 3 5 5 2 6 3 7 17 8 4 9 16 10 18 11 1 12 9 13 10 14
REMARK SMILES IDX 11 15 12 16 13 19 14 20 15 21
REMARK H PARENT 8 4 9 17 12 18
ROOT
ATOM      1  C   UNL     1      52.202  52.057  20.581  1.00  0.00    +0.242 C 
ATOM      2  O   UNL     1      52.032  51.748  21.757  1.00  0.00    -0.273 OA
ATOM      3  N   UNL     1      52.052  53.359  20.136  1.00  0.00    -0.266 N 
ATOM      4  H   UNL     1      51.800  53.525  19.159  1.00  0.00    +0.191 HD
ENDROOT
BRANCH   1   5
ATOM      5  C   UNL     1      52.614  51.078  19.489  1.00  0.00    +0.091 C 
ATOM      6  N   UNL     1      50.149  49.735  18.817  1.00  0.00    -0.346 N 
ATOM      7  C   UNL     1      50.879  49.370  20.019  1.00  0.00    +0.120 C 
ATOM      8  C   UNL     1      50.474  50.870  18.082  1.00  0.00    +0.223 C 
ATOM      9  C   UNL     1      52.371  49.632  19.904  1.00  0.00    +0.035 C 
ATOM     10  C   UNL     1      51.903  51.372  18.174  1.00  0.00    +0.113 C 
ATOM     11  O   UNL     1      49.692  51.395  17.288  1.00  0.00    -0.275 OA
ATOM     12  C   UNL     1      48.779  49.256  18.730  1.00  0.00    +0.146 C 
ENDBRANCH   1   5
BRANCH   3  13
ATOM     13  N   UNL     1      51.421  54.255  21.041  1.00  0.00    -0.249 N 
ATOM     14  C   UNL     1      50.995  55.449  20.486  1.00  0.00    +0.333 C 
ATOM     15  O   UNL     1      51.290  55.792  19.345  1.00  0.00    -0.247 OA
ATOM     16  N   UNL     1      50.223  56.179  21.361  1.00  0.00    -0.334 N 
ATOM     17  H   UNL     1      50.754  53.788  21.655  1.00  0.00    +0.193 HD
ATOM     18  H   UNL     1      50.320  55.945  22.340  1.00  0.00    +0.165 HD
BRANCH  16  19
ATOM     19  C   UNL     1      49.736  57.483  21.031  1.00  0.00    +0.084 C 
ATOM     20  C   UNL     1      48.259  57.740  20.913  1.00  0.00    +0.027 C 
ATOM     21  C   UNL     1      49.031  58.320  22.061  1.00  0.00    +0.027 C 
ENDBRANCH  16  19
ENDBRANCH   3  13
TORSDOF 3
ENDMDL
MODEL 2
REMARK VINA RESULT:    -6.682      3.382      5.626
REMARK INTER + INTRA:          -8.084
REMARK INTER:                  -7.738
REMARK INTRA:                  -0.346
REMARK UNBOUND:                -0.230
REMARK SMILES CN1CC[C@H](C(=O)NNC(=O)NC2CC2)CC1=O
REMARK SMILES IDX 6 1 7 2 8 3 5 5 2 6 3 7 17 8 4 9 16 10 18 11 1 12 9 13 10 14
REMARK SMILES IDX 11 15 12 16 13 19 14 20 15 21
REMARK H PARENT 8 4 9 17 12 18
ROOT
ATOM      1  C   UNL     1      48.713  49.741  15.903  1.00  0.00    +0.242 C 
ATOM      2  O   UNL     1      47.967  50.710  15.782  1.00  0.00    -0.273 OA
ATOM      3  N   UNL     1      49.936  49.832  16.546  1.00  0.00    -0.266 N 
ATOM      4  H   UNL     1      50.680  49.179  16.293  1.00  0.00    +0.191 HD
ENDROOT
BRANCH   1   5
ATOM      5  C   UNL     1      48.387  48.342  15.396  1.00  0.00    +0.091 C 
ATOM      6  N   UNL     1      46.266  47.462  17.145  1.00  0.00    -0.346 N 
ATOM      7  C   UNL     1      47.646  47.444  17.599  1.00  0.00    +0.120 C 
ATOM      8  C   UNL     1      45.894  48.102  15.968  1.00  0.00    +0.223 C 
ATOM      9  C   UNL     1      48.639  47.281  16.460  1.00  0.00    +0.035 C 
ATOM     10  C   UNL     1      46.953  48.248  14.891  1.00  0.00    +0.113 C 
ATOM     11  O   UNL     1      44.732  48.436  15.731  1.00  0.00    -0.275 OA
ATOM     12  C   UNL     1      45.251  47.324  18.177  1.00  0.00    +0.146 C 
ENDBRANCH   1   5
BRANCH   3  13
ATOM     13  N   UNL     1      50.404  51.149  16.802  1.00  0.00    -0.249 N 
ATOM     14  C   UNL     1      51.084  51.310  17.997  1.00  0.00    +0.333 C 
ATOM     15  O   UNL     1      51.129  50.432  18.855  1.00  0.00    -0.247 OA
ATOM     16  N   UNL     1      51.678  52.547  18.092  1.00  0.00    -0.334 N 
ATOM     17  H   UNL     1      50.838  51.579  15.985  1.00  0.00    +0.193 HD
ATOM     18  H   UNL     1      51.309  53.265  17.483  1.00  0.00    +0.165 HD
BRANCH  16  19
ATOM     19  C   UNL     1      52.369  52.964  19.273  1.00  0.00    +0.084 C 
ATOM     20  C   UNL     1      52.379  54.411  19.682  1.00  0.00    +0.027 C 
ATOM     21  C   UNL     1      51.608  53.409  20.490  1.00  0.00    +0.027 C 
ENDBRANCH  16  19
ENDBRANCH   3  13
TORSDOF 3
ENDMDL
MODEL 3
REMARK VINA RESULT:    -6.382      2.718      5.748
REMARK INTER + INTRA:          -7.731
REMARK INTER:                  -7.444
REMARK INTRA:                  -0.287
REMARK UNBOUND:                -0.230
REMARK SMILES CN1CC[C@H](C(=O)NNC(=O)NC2CC2)CC1=O
REMARK SMILES IDX 6 1 7 2 8 3 5 5 2 6 3 7 17 8 4 9 16 10 18 11 1 12 9 13 10 14
REMARK SMILES IDX 11 15 12 16 13 19 14 20 15 21
REMARK H PARENT 8 4 9 17 12 18
ROOT
ATOM      1  C   UNL     1      49.484  54.384  19.286  1.00  0.00    +0.242 C 
ATOM      2  O   UNL     1      48.362  54.579  19.744  1.00  0.00    -0.273 OA
ATOM      3  N   UNL     1      49.680  53.778  18.057  1.00  0.00    -0.266 N 
ATOM      4  H   UNL     1      50.552  53.274  17.884  1.00  0.00    +0.191 HD
ENDROOT
BRANCH   1   5
ATOM      5  C   UNL     1      50.776  54.793  19.983  1.00  0.00    +0.091 C 
ATOM      6  N   UNL     1      52.262  52.325  20.162  1.00  0.00    -0.346 N 
ATOM      7  C   UNL     1      51.172  52.594  21.086  1.00  0.00    +0.120 C 
ATOM      8  C   UNL     1      52.480  53.116  19.041  1.00  0.00    +0.223 C 
ATOM      9  C   UNL     1      50.950  54.079  21.318  1.00  0.00    +0.035 C 
ATOM     10  C   UNL     1      51.991  54.552  19.097  1.00  0.00    +0.113 C 
ATOM     11  O   UNL     1      53.144  52.734  18.076  1.00  0.00    -0.275 OA
ATOM     12  C   UNL     1      52.728  50.949  20.107  1.00  0.00    +0.146 C 
ENDBRANCH   1   5
BRANCH   3  13
ATOM     13  N   UNL     1      48.541  53.146  17.489  1.00  0.00    -0.249 N 
ATOM     14  C   UNL     1      48.473  51.776  17.677  1.00  0.00    +0.333 C 
ATOM     15  O   UNL     1      49.405  51.125  18.141  1.00  0.00    -0.247 OA
ATOM     16  N   UNL     1      47.261  51.259  17.281  1.00  0.00    -0.334 N 
ATOM     17  H   UNL     1      47.677  53.660  17.664  1.00  0.00    +0.193 HD
ATOM     18  H   UNL     1      46.723  51.829  16.642  1.00  0.00    +0.165 HD
BRANCH  16  19
ATOM     19  C   UNL     1      46.993  49.855  17.311  1.00  0.00    +0.084 C 
ATOM     20  C   UNL     1      45.579  49.345  17.269  1.00  0.00    +0.027 C 
ATOM     21  C   UNL     1      46.482  49.146  16.087  1.00  0.00    +0.027 C 
ENDBRANCH  16  19
ENDBRANCH   3  13
TORSDOF 3
ENDMDL
MODEL 4
REMARK VINA RESULT:    -6.288      2.726      3.817
REMARK INTER + INTRA:          -7.620
REMARK INTER:                  -7.313
REMARK INTRA:                  -0.306
REMARK UNBOUND:                -0.230
REMARK SMILES CN1CC[C@H](C(=O)NNC(=O)NC2CC2)CC1=O
REMARK SMILES IDX 6 1 7 2 8 3 5 5 2 6 3 7 17 8 4 9 16 10 18 11 1 12 9 13 10 14
REMARK SMILES IDX 11 15 12 16 13 19 14 20 15 21
REMARK H PARENT 8 4 9 17 12 18
ROOT
ATOM      1  C   UNL     1      48.404  51.689  17.251  1.00  0.00    +0.242 C 
ATOM      2  O   UNL     1      47.240  52.080  17.266  1.00  0.00    -0.273 OA
ATOM      3  N   UNL     1      49.441  52.450  17.762  1.00  0.00    -0.266 N 
ATOM      4  H   UNL     1      50.385  52.316  17.394  1.00  0.00    +0.191 HD
ENDROOT
BRANCH   1   5
ATOM      5  C   UNL     1      48.846  50.338  16.702  1.00  0.00    +0.091 C 
ATOM      6  N   UNL     1      46.983  48.480  17.889  1.00  0.00    -0.346 N 
ATOM      7  C   UNL     1      48.089  49.010  18.669  1.00  0.00    +0.120 C 
ATOM      8  C   UNL     1      46.649  49.006  16.647  1.00  0.00    +0.223 C 
ATOM      9  C   UNL     1      49.284  49.391  17.812  1.00  0.00    +0.035 C 
ATOM     10  C   UNL     1      47.753  49.690  15.861  1.00  0.00    +0.113 C 
ATOM     11  O   UNL     1      45.546  48.835  16.126  1.00  0.00    -0.275 OA
ATOM     12  C   UNL     1      45.924  47.828  18.642  1.00  0.00    +0.146 C 
ENDBRANCH   1   5
BRANCH   3  13
ATOM     13  N   UNL     1      49.132  53.808  18.042  1.00  0.00    -0.249 N 
ATOM     14  C   UNL     1      49.421  54.224  19.331  1.00  0.00    +0.333 C 
ATOM     15  O   UNL     1      49.752  53.444  20.219  1.00  0.00    -0.247 OA
ATOM     16  N   UNL     1      49.287  55.586  19.477  1.00  0.00    -0.334 N 
ATOM     17  H   UNL     1      49.426  54.440  17.297  1.00  0.00    +0.193 HD
ATOM     18  H   UNL     1      48.719  56.053  18.784  1.00  0.00    +0.165 HD
BRANCH  16  19
ATOM     19  C   UNL     1      49.459  56.229  20.742  1.00  0.00    +0.084 C 
ATOM     20  C   UNL     1      50.221  57.522  20.846  1.00  0.00    +0.027 C 
ATOM     21  C   UNL     1      48.735  57.509  21.056  1.00  0.00    +0.027 C 
ENDBRANCH  16  19
ENDBRANCH   3  13
TORSDOF 3
ENDMDL
MODEL 5
REMARK VINA RESULT:    -6.034      6.148      9.862
REMARK INTER + INTRA:          -7.321
REMARK INTER:                  -7.017
REMARK INTRA:                  -0.304
REMARK UNBOUND:                -0.230
REMARK SMILES CN1CC[C@H](C(=O)NNC(=O)NC2CC2)CC1=O
REMARK SMILES IDX 6 1 7 2 8 3 5 5 2 6 3 7 17 8 4 9 16 10 18 11 1 12 9 13 10 14
REMARK SMILES IDX 11 15 12 16 13 19 14 20 15 21
REMARK H PARENT 8 4 9 17 12 18
ROOT
ATOM      1  C   UNL     1      46.169  47.984  17.523  1.00  0.00    +0.242 C 
ATOM      2  O   UNL     1      45.323  48.872  17.453  1.00  0.00    -0.273 OA
ATOM      3  N   UNL     1      45.905  46.686  17.120  1.00  0.00    -0.266 N 
ATOM      4  H   UNL     1      46.433  45.918  17.540  1.00  0.00    +0.191 HD
ENDROOT
BRANCH   1   5
ATOM      5  C   UNL     1      47.591  48.195  18.027  1.00  0.00    +0.091 C 
ATOM      6  N   UNL     1      48.961  49.314  15.747  1.00  0.00    -0.346 N 
ATOM      7  C   UNL     1      48.689  47.887  15.812  1.00  0.00    +0.120 C 
ATOM      8  C   UNL     1      48.387  50.208  16.643  1.00  0.00    +0.223 C 
ATOM      9  C   UNL     1      48.600  47.370  17.237  1.00  0.00    +0.035 C 
ATOM     10  C   UNL     1      47.983  49.667  18.001  1.00  0.00    +0.113 C 
ATOM     11  O   UNL     1      48.309  51.416  16.419  1.00  0.00    -0.275 OA
ATOM     12  C   UNL     1      49.346  49.832  14.444  1.00  0.00    +0.146 C 
ENDBRANCH   1   5
BRANCH   3  13
ATOM     13  N   UNL     1      44.538  46.374  16.892  1.00  0.00    -0.249 N 
ATOM     14  C   UNL     1      44.168  46.283  15.562  1.00  0.00    +0.333 C 
ATOM     15  O   UNL     1      44.912  46.618  14.644  1.00  0.00    -0.247 OA
ATOM     16  N   UNL     1      42.894  45.786  15.412  1.00  0.00    -0.334 N 
ATOM     17  H   UNL     1      44.199  45.626  17.499  1.00  0.00    +0.193 HD
ATOM     18  H   UNL     1      42.293  45.852  16.223  1.00  0.00    +0.165 HD
BRANCH  16  19
ATOM     19  C   UNL     1      42.272  45.678  14.129  1.00  0.00    +0.084 C 
ATOM     20  C   UNL     1      40.774  45.601  14.009  1.00  0.00    +0.027 C 
ATOM     21  C   UNL     1      41.501  46.832  13.551  1.00  0.00    +0.027 C 
ENDBRANCH  16  19
ENDBRANCH   3  13
TORSDOF 3
ENDMDL
