MODEL 1
REMARK VINA RESULT:    -7.861      0.000      0.000
REMARK INTER + INTRA:         -11.157
REMARK INTER:                 -10.618
REMARK INTRA:                  -0.539
REMARK UNBOUND:                -0.539
REMARK SMILES C[C@@H]1C[C@H]1CNC(=O)N[C@@H](C)CN(C)c1ccccc1
REMARK SMILES IDX 6 1 7 2 8 3 9 4 5 7 4 8 2 9 3 10 1 11 10 12 11 13 12 14
REMARK SMILES IDX 13 15 14 16 15 17 16 18 20 19 17 20 19 21 18 22
REMARK H PARENT 6 5 9 6
ROOT
ATOM      1  N   UNL     1      49.211  51.011  16.949  1.00  0.00    -0.338 N 
ATOM      2  C   UNL     1      50.116  51.220  17.957  1.00  0.00    +0.315 C 
ATOM      3  O   UNL     1      50.488  50.365  18.746  1.00  0.00    -0.249 OA
ATOM      4  N   UNL     1      50.553  52.521  17.956  1.00  0.00    -0.334 N 
ATOM      5  H   UNL     1      48.707  51.829  16.646  1.00  0.00    +0.165 HD
ATOM      6  H   UNL     1      50.558  52.959  17.048  1.00  0.00    +0.165 HD
ENDROOT
BRANCH   1   7
ATOM      7  C   UNL     1      48.539  49.741  16.799  1.00  0.00    +0.121 C 
BRANCH   7   8
ATOM      8  C   UNL     1      47.309  49.605  17.649  1.00  0.00    +0.011 C 
ATOM      9  C   UNL     1      46.351  48.436  17.555  1.00  0.00    -0.009 C 
ATOM     10  C   UNL     1      47.214  48.607  18.781  1.00  0.00    +0.009 C 
ATOM     11  C   UNL     1      44.881  48.676  17.625  1.00  0.00    +0.008 C 
ENDBRANCH   7   8
ENDBRANCH   1   7
BRANCH   4  12
ATOM     12  C   UNL     1      51.558  52.984  18.918  1.00  0.00    +0.100 C 
ATOM     13  C   UNL     1      52.962  52.792  18.341  1.00  0.00    +0.033 C 
BRANCH  12  14
ATOM     14  C   UNL     1      51.347  54.474  19.294  1.00  0.00    +0.140 C 
BRANCH  14  15
ATOM     15  N   UNL     1      50.696  54.666  20.609  1.00  0.00    -0.373 N 
ATOM     16  C   UNL     1      51.410  54.127  21.762  1.00  0.00    +0.143 C 
BRANCH  15  17
ATOM     17  C   UNL     1      49.853  55.769  20.788  1.00  0.00    +0.036 A 
ATOM     18  C   UNL     1      48.624  55.899  20.116  1.00  0.00    +0.026 A 
ATOM     19  C   UNL     1      50.211  56.839  21.627  1.00  0.00    +0.026 A 
ATOM     20  C   UNL     1      47.789  57.010  20.293  1.00  0.00    +0.002 A 
ATOM     21  C   UNL     1      49.383  57.956  21.810  1.00  0.00    +0.002 A 
ATOM     22  C   UNL     1      48.168  58.040  21.145  1.00  0.00    +0.000 A 
ENDBRANCH  15  17
ENDBRANCH  14  15
ENDBRANCH  12  14
ENDBRANCH   4  12
TORSDOF 6
ENDMDL
MODEL 2
REMARK VINA RESULT:    -7.696      1.654      7.119
REMARK INTER + INTRA:         -10.934
REMARK INTER:                 -10.217
REMARK INTRA:                  -0.718
REMARK UNBOUND:                -0.539
REMARK SMILES C[C@@H]1C[C@H]1CNC(=O)N[C@@H](C)CN(C)c1ccccc1
REMARK SMILES IDX 6 1 7 2 8 3 9 4 5 7 4 8 2 9 3 10 1 11 10 12 11 13 12 14
REMARK SMILES IDX 13 15 14 16 15 17 16 18 20 19 17 20 19 21 18 22
REMARK H PARENT 6 5 9 6
ROOT
ATOM      1  N   UNL     1      51.683  53.943  21.174  1.00  0.00    -0.338 N 
ATOM      2  C   UNL     1      51.600  53.126  20.076  1.00  0.00    +0.315 C 
ATOM      3  O   UNL     1      51.499  53.518  18.923  1.00  0.00    -0.249 OA
ATOM      4  N   UNL     1      51.651  51.806  20.448  1.00  0.00    -0.334 N 
ATOM      5  H   UNL     1      51.368  53.535  22.039  1.00  0.00    +0.165 HD
ATOM      6  H   UNL     1      52.182  51.629  21.286  1.00  0.00    +0.165 HD
ENDROOT
BRANCH   1   7
ATOM      7  C   UNL     1      51.561  55.377  21.049  1.00  0.00    +0.121 C 
BRANCH   7   8
ATOM      8  C   UNL     1      50.176  55.892  21.314  1.00  0.00    +0.011 C 
ATOM      9  C   UNL     1      49.649  57.199  20.764  1.00  0.00    -0.009 C 
ATOM     10  C   UNL     1      49.097  55.891  20.255  1.00  0.00    +0.009 C 
ATOM     11  C   UNL     1      48.819  58.085  21.630  1.00  0.00    +0.008 C 
ENDBRANCH   7   8
ENDBRANCH   1   7
BRANCH   4  12
ATOM     12  C   UNL     1      51.618  50.736  19.446  1.00  0.00    +0.100 C 
ATOM     13  C   UNL     1      52.727  49.720  19.731  1.00  0.00    +0.033 C 
BRANCH  12  14
ATOM     14  C   UNL     1      50.244  50.017  19.422  1.00  0.00    +0.140 C 
BRANCH  14  15
ATOM     15  N   UNL     1      49.422  50.353  18.240  1.00  0.00    -0.373 N 
ATOM     16  C   UNL     1      50.154  50.707  17.028  1.00  0.00    +0.143 C 
BRANCH  15  17
ATOM     17  C   UNL     1      48.150  49.779  18.120  1.00  0.00    +0.036 A 
ATOM     18  C   UNL     1      47.166  50.297  17.258  1.00  0.00    +0.026 A 
ATOM     19  C   UNL     1      47.769  48.667  18.891  1.00  0.00    +0.026 A 
ATOM     20  C   UNL     1      45.891  49.723  17.149  1.00  0.00    +0.002 A 
ATOM     21  C   UNL     1      46.496  48.087  18.790  1.00  0.00    +0.002 A 
ATOM     22  C   UNL     1      45.557  48.614  17.915  1.00  0.00    +0.000 A 
ENDBRANCH  15  17
ENDBRANCH  14  15
ENDBRANCH  12  14
ENDBRANCH   4  12
TORSDOF 6
ENDMDL
MODEL 3
REMARK VINA RESULT:    -7.618      1.843      7.476
REMARK INTER + INTRA:         -10.829
REMARK INTER:                 -10.433
REMARK INTRA:                  -0.396
REMARK UNBOUND:                -0.539
REMARK SMILES C[C@@H]1C[C@H]1CNC(=O)N[C@@H](C)CN(C)c1ccccc1
REMARK SMILES IDX 6 1 7 2 8 3 9 4 5 7 4 8 2 9 3 10 1 11 10 12 11 13 12 14
REMARK SMILES IDX 13 15 14 16 15 17 16 18 20 19 17 20 19 21 18 22
REMARK H PARENT 6 5 9 6
ROOT
ATOM      1  N   UNL     1      51.216  53.122  22.108  1.00  0.00    -0.338 N 
ATOM      2  C   UNL     1      51.606  52.542  20.928  1.00  0.00    +0.315 C 
ATOM      3  O   UNL     1      52.379  53.046  20.128  1.00  0.00    -0.249 OA
ATOM      4  N   UNL     1      51.011  51.315  20.770  1.00  0.00    -0.334 N 
ATOM      5  H   UNL     1      50.321  52.821  22.461  1.00  0.00    +0.165 HD
ATOM      6  H   UNL     1      50.808  50.836  21.632  1.00  0.00    +0.165 HD
ENDROOT
BRANCH   1   7
ATOM      7  C   UNL     1      51.637  54.458  22.459  1.00  0.00    +0.121 C 
BRANCH   7   8
ATOM      8  C   UNL     1      51.026  55.529  21.605  1.00  0.00    +0.011 C 
ATOM      9  C   UNL     1      50.686  56.914  22.113  1.00  0.00    -0.009 C 
ATOM     10  C   UNL     1      51.812  56.729  21.125  1.00  0.00    +0.009 C 
ATOM     11  C   UNL     1      49.411  57.564  21.693  1.00  0.00    +0.008 C 
ENDBRANCH   7   8
ENDBRANCH   1   7
BRANCH   4  12
ATOM     12  C   UNL     1      51.300  50.479  19.600  1.00  0.00    +0.100 C 
ATOM     13  C   UNL     1      52.533  49.614  19.867  1.00  0.00    +0.033 C 
BRANCH  12  14
ATOM     14  C   UNL     1      50.095  49.574  19.233  1.00  0.00    +0.140 C 
BRANCH  14  15
ATOM     15  N   UNL     1      49.134  50.213  18.308  1.00  0.00    -0.373 N 
ATOM     16  C   UNL     1      49.713  50.997  17.222  1.00  0.00    +0.143 C 
BRANCH  15  17
ATOM     17  C   UNL     1      47.881  49.617  18.121  1.00  0.00    +0.036 A 
ATOM     18  C   UNL     1      47.405  48.584  18.948  1.00  0.00    +0.026 A 
ATOM     19  C   UNL     1      47.039  49.993  17.060  1.00  0.00    +0.026 A 
ATOM     20  C   UNL     1      46.153  47.984  18.749  1.00  0.00    +0.002 A 
ATOM     21  C   UNL     1      45.786  49.399  16.852  1.00  0.00    +0.002 A 
ATOM     22  C   UNL     1      45.341  48.395  17.701  1.00  0.00    +0.000 A 
ENDBRANCH  15  17
ENDBRANCH  14  15
ENDBRANCH  12  14
ENDBRANCH   4  12
TORSDOF 6
ENDMDL
MODEL 4
REMARK VINA RESULT:    -6.936      2.202      7.974
REMARK INTER + INTRA:          -9.908
REMARK INTER:                  -9.435
REMARK INTRA:                  -0.473
REMARK UNBOUND:                -0.539
REMARK SMILES C[C@@H]1C[C@H]1CNC(=O)N[C@@H](C)CN(C)c1ccccc1
REMARK SMILES IDX 6 1 7 2 8 3 9 4 5 7 4 8 2 9 3 10 1 11 10 12 11 13 12 14
REMARK SMILES IDX 13 15 14 16 15 17 16 18 20 19 17 20 19 21 18 22
REMARK H PARENT 6 5 9 6
ROOT
ATOM      1  N   UNL     1      50.998  54.862  18.881  1.00  0.00    -0.338 N 
ATOM      2  C   UNL     1      49.898  54.064  18.696  1.00  0.00    +0.315 C 
ATOM      3  O   UNL     1      48.781  54.307  19.129  1.00  0.00    -0.249 OA
ATOM      4  N   UNL     1      50.222  52.955  17.955  1.00  0.00    -0.334 N 
ATOM      5  H   UNL     1      51.886  54.388  18.837  1.00  0.00    +0.165 HD
ATOM      6  H   UNL     1      50.974  53.096  17.300  1.00  0.00    +0.165 HD
ENDROOT
BRANCH   1   7
ATOM      7  C   UNL     1      50.932  56.045  19.707  1.00  0.00    +0.121 C 
BRANCH   7   8
ATOM      8  C   UNL     1      52.057  56.157  20.694  1.00  0.00    +0.011 C 
ATOM      9  C   UNL     1      52.259  57.351  21.602  1.00  0.00    -0.009 C 
ATOM     10  C   UNL     1      51.841  56.023  22.185  1.00  0.00    +0.009 C 
ATOM     11  C   UNL     1      53.634  57.879  21.834  1.00  0.00    +0.008 C 
ENDBRANCH   7   8
ENDBRANCH   1   7
BRANCH   4  12
ATOM     12  C   UNL     1      49.204  51.965  17.590  1.00  0.00    +0.100 C 
ATOM     13  C   UNL     1      48.319  52.514  16.468  1.00  0.00    +0.033 C 
BRANCH  12  14
ATOM     14  C   UNL     1      49.844  50.625  17.143  1.00  0.00    +0.140 C 
BRANCH  14  15
ATOM     15  N   UNL     1      49.137  49.431  17.656  1.00  0.00    -0.373 N 
ATOM     16  C   UNL     1      49.420  49.064  19.040  1.00  0.00    +0.143 C 
BRANCH  15  17
ATOM     17  C   UNL     1      47.893  49.098  17.107  1.00  0.00    +0.036 A 
ATOM     18  C   UNL     1      47.737  48.721  15.761  1.00  0.00    +0.026 A 
ATOM     19  C   UNL     1      46.712  49.160  17.869  1.00  0.00    +0.026 A 
ATOM     20  C   UNL     1      46.486  48.397  15.216  1.00  0.00    +0.002 A 
ATOM     21  C   UNL     1      45.457  48.839  17.333  1.00  0.00    +0.002 A 
ATOM     22  C   UNL     1      45.345  48.453  16.004  1.00  0.00    +0.000 A 
ENDBRANCH  15  17
ENDBRANCH  14  15
ENDBRANCH  12  14
ENDBRANCH   4  12
TORSDOF 6
ENDMDL
MODEL 5
REMARK VINA RESULT:    -6.039      7.262     10.541
REMARK INTER + INTRA:          -8.696
REMARK INTER:                  -7.874
REMARK INTRA:                  -0.823
REMARK UNBOUND:                -0.539
REMARK SMILES C[C@@H]1C[C@H]1CNC(=O)N[C@@H](C)CN(C)c1ccccc1
REMARK SMILES IDX 6 1 7 2 8 3 9 4 5 7 4 8 2 9 3 10 1 11 10 12 11 13 12 14
REMARK SMILES IDX 13 15 14 16 15 17 16 18 20 19 17 20 19 21 18 22
REMARK H PARENT 6 5 9 6
ROOT
ATOM      1  N   UNL     1      47.250  60.375  18.726  1.00  0.00    -0.338 N 
ATOM      2  C   UNL     1      46.787  61.666  18.735  1.00  0.00    +0.315 C 
ATOM      3  O   UNL     1      46.282  62.217  19.702  1.00  0.00    -0.249 OA
ATOM      4  N   UNL     1      46.972  62.257  17.510  1.00  0.00    -0.334 N 
ATOM      5  H   UNL     1      47.264  59.929  17.823  1.00  0.00    +0.165 HD
ATOM      6  H   UNL     1      47.766  61.911  16.995  1.00  0.00    +0.165 HD
ENDROOT
BRANCH   1   7
ATOM      7  C   UNL     1      47.086  59.515  19.874  1.00  0.00    +0.121 C 
BRANCH   7   8
ATOM      8  C   UNL     1      48.177  58.495  20.026  1.00  0.00    +0.011 C 
ATOM      9  C   UNL     1      48.548  57.856  21.348  1.00  0.00    -0.009 C 
ATOM     10  C   UNL     1      47.887  57.031  20.272  1.00  0.00    +0.009 C 
ATOM     11  C   UNL     1      49.984  57.644  21.689  1.00  0.00    +0.008 C 
ENDBRANCH   7   8
ENDBRANCH   1   7
BRANCH   4  12
ATOM     12  C   UNL     1      46.591  63.654  17.278  1.00  0.00    +0.100 C 
ATOM     13  C   UNL     1      47.824  64.475  16.894  1.00  0.00    +0.033 C 
BRANCH  12  14
ATOM     14  C   UNL     1      45.515  63.776  16.168  1.00  0.00    +0.140 C 
BRANCH  14  15
ATOM     15  N   UNL     1      44.161  64.068  16.687  1.00  0.00    -0.373 N 
ATOM     16  C   UNL     1      43.288  64.837  15.806  1.00  0.00    +0.143 C 
BRANCH  15  17
ATOM     17  C   UNL     1      43.585  63.179  17.603  1.00  0.00    +0.036 A 
ATOM     18  C   UNL     1      43.353  61.825  17.300  1.00  0.00    +0.026 A 
ATOM     19  C   UNL     1      43.166  63.605  18.876  1.00  0.00    +0.026 A 
ATOM     20  C   UNL     1      42.769  60.943  18.220  1.00  0.00    +0.002 A 
ATOM     21  C   UNL     1      42.580  62.730  19.802  1.00  0.00    +0.002 A 
ATOM     22  C   UNL     1      42.384  61.396  19.474  1.00  0.00    +0.000 A 
ENDBRANCH  15  17
ENDBRANCH  14  15
ENDBRANCH  12  14
ENDBRANCH   4  12
TORSDOF 6
ENDMDL
