MODEL 1
REMARK VINA RESULT:    -7.679      0.000      0.000
REMARK INTER + INTRA:          -9.606
REMARK INTER:                  -9.250
REMARK INTRA:                  -0.356
REMARK UNBOUND:                -0.356
REMARK SMILES Cc1nn(CC(=O)N[C@H]2CC[NH+]3CCC[C@H]23)c(C)c1N
REMARK SMILES IDX 5 1 4 2 2 3 19 4 3 5 17 6 1 7 18 8 20 9 6 12 7 13 8 14 9 16
REMARK SMILES IDX 10 17 16 18 11 19 12 20 15 21 13 22 14 23
REMARK H PARENT 20 10 20 11 8 15 12 24
ROOT
ATOM      1  C   UNL     1      51.969  53.567  18.904  1.00  0.00    +0.244 C 
ENDROOT
BRANCH   1   2
ATOM      2  N   UNL     1      51.975  54.548  19.983  1.00  0.00    -0.258 N 
ATOM      3  C   UNL     1      52.021  56.489  20.848  1.00  0.00    +0.083 A 
ATOM      4  C   UNL     1      51.830  55.563  21.907  1.00  0.00    +0.076 A 
ATOM      5  N   UNL     1      52.167  55.863  19.669  1.00  0.00    -0.175 NA
ATOM      6  C   UNL     1      51.833  54.317  21.333  1.00  0.00    +0.059 A 
ATOM      7  C   UNL     1      52.065  57.967  20.937  1.00  0.00    +0.071 C 
ATOM      8  C   UNL     1      51.689  52.967  21.927  1.00  0.00    +0.069 C 
BRANCH   4   9
ATOM      9  N   UNL     1      51.669  55.820  23.214  1.00  0.00    -0.396 N 
ATOM     10  H   UNL     1      51.833  56.740  23.585  1.00  0.00    +0.156 HD
ATOM     11  H   UNL     1      50.999  55.298  23.772  1.00  0.00    +0.156 HD
ENDBRANCH   4   9
ENDBRANCH   1   2
BRANCH   1  12
ATOM     12  C   UNL     1      50.539  53.206  18.576  1.00  0.00    +0.242 C 
ATOM     13  O   UNL     1      49.563  53.827  18.989  1.00  0.00    -0.273 OA
ATOM     14  N   UNL     1      50.407  52.052  17.831  1.00  0.00    -0.346 N 
ATOM     15  H   UNL     1      51.274  51.527  17.662  1.00  0.00    +0.164 HD
BRANCH  14  16
ATOM     16  C   UNL     1      49.109  51.404  17.661  1.00  0.00    +0.145 C 
ATOM     17  C   UNL     1      48.653  51.495  16.207  1.00  0.00    +0.092 C 
ATOM     18  C   UNL     1      49.173  49.879  17.915  1.00  0.00    +0.207 C 
ATOM     19  C   UNL     1      49.433  50.376  15.531  1.00  0.00    +0.264 C 
ATOM     20  N   UNL     1      49.397  49.252  16.524  1.00  0.00    -0.331 N 
ATOM     21  C   UNL     1      47.871  49.249  18.399  1.00  0.00    +0.073 C 
ATOM     22  C   UNL     1      48.319  48.220  16.302  1.00  0.00    +0.262 C 
ATOM     23  C   UNL     1      47.829  47.905  17.690  1.00  0.00    +0.068 C 
ATOM     24  H   UNL     1      50.325  48.789  16.546  1.00  0.00    +0.348 HD
ENDBRANCH  14  16
ENDBRANCH   1  12
TORSDOF 4
ENDMDL
MODEL 2
REMARK VINA RESULT:    -7.551      1.954      6.851
REMARK INTER + INTRA:          -9.452
REMARK INTER:                  -8.710
REMARK INTRA:                  -0.741
REMARK UNBOUND:                -0.356
REMARK SMILES Cc1nn(CC(=O)N[C@H]2CC[NH+]3CCC[C@H]23)c(C)c1N
REMARK SMILES IDX 5 1 4 2 2 3 19 4 3 5 17 6 1 7 18 8 20 9 6 12 7 13 8 14 9 16
REMARK SMILES IDX 10 17 16 18 11 19 12 20 15 21 13 22 14 23
REMARK H PARENT 20 10 20 11 8 15 12 24
ROOT
ATOM      1  C   UNL     1      52.325  51.059  18.891  1.00  0.00    +0.244 C 
ENDROOT
BRANCH   1   2
ATOM      2  N   UNL     1      50.961  50.640  18.593  1.00  0.00    -0.258 N 
ATOM      3  C   UNL     1      49.171  50.507  17.456  1.00  0.00    +0.083 A 
ATOM      4  C   UNL     1      49.016  49.655  18.580  1.00  0.00    +0.076 A 
ATOM      5  N   UNL     1      50.345  51.158  17.491  1.00  0.00    -0.175 NA
ATOM      6  C   UNL     1      50.167  49.777  19.316  1.00  0.00    +0.059 A 
ATOM      7  C   UNL     1      48.218  50.714  16.340  1.00  0.00    +0.071 C 
ATOM      8  C   UNL     1      50.584  49.147  20.592  1.00  0.00    +0.069 C 
BRANCH   4   9
ATOM      9  N   UNL     1      47.972  48.871  18.889  1.00  0.00    -0.396 N 
ATOM     10  H   UNL     1      48.075  47.873  18.952  1.00  0.00    +0.156 HD
ATOM     11  H   UNL     1      47.215  49.214  19.473  1.00  0.00    +0.156 HD
ENDBRANCH   4   9
ENDBRANCH   1   2
BRANCH   1  12
ATOM     12  C   UNL     1      52.467  52.530  18.578  1.00  0.00    +0.242 C 
ATOM     13  O   UNL     1      53.394  53.006  17.928  1.00  0.00    -0.273 OA
ATOM     14  N   UNL     1      51.502  53.325  19.162  1.00  0.00    -0.346 N 
ATOM     15  H   UNL     1      50.859  52.848  19.807  1.00  0.00    +0.164 HD
BRANCH  14  16
ATOM     16  C   UNL     1      51.640  54.779  19.202  1.00  0.00    +0.145 C 
ATOM     17  C   UNL     1      50.274  55.448  19.079  1.00  0.00    +0.092 C 
ATOM     18  C   UNL     1      52.157  55.286  20.570  1.00  0.00    +0.207 C 
ATOM     19  C   UNL     1      49.710  55.344  20.489  1.00  0.00    +0.264 C 
ATOM     20  N   UNL     1      50.887  55.626  21.375  1.00  0.00    -0.331 N 
ATOM     21  C   UNL     1      52.928  56.600  20.522  1.00  0.00    +0.073 C 
ATOM     22  C   UNL     1      51.013  57.049  21.859  1.00  0.00    +0.262 C 
ATOM     23  C   UNL     1      52.491  57.327  21.784  1.00  0.00    +0.068 C 
ATOM     24  H   UNL     1      50.861  54.982  22.188  1.00  0.00    +0.348 HD
ENDBRANCH  14  16
ENDBRANCH   1  12
TORSDOF 4
ENDMDL
MODEL 3
REMARK VINA RESULT:    -7.463      1.783      2.517
REMARK INTER + INTRA:          -9.346
REMARK INTER:                  -8.985
REMARK INTRA:                  -0.362
REMARK UNBOUND:                -0.356
REMARK SMILES Cc1nn(CC(=O)N[C@H]2CC[NH+]3CCC[C@H]23)c(C)c1N
REMARK SMILES IDX 5 1 4 2 2 3 19 4 3 5 17 6 1 7 18 8 20 9 6 12 7 13 8 14 9 16
REMARK SMILES IDX 10 17 16 18 11 19 12 20 15 21 13 22 14 23
REMARK H PARENT 20 10 20 11 8 15 12 24
ROOT
ATOM      1  C   UNL     1      51.781  51.100  18.127  1.00  0.00    +0.244 C 
ENDROOT
BRANCH   1   2
ATOM      2  N   UNL     1      51.828  52.044  19.238  1.00  0.00    -0.258 N 
ATOM      3  C   UNL     1      52.038  53.941  20.172  1.00  0.00    +0.083 A 
ATOM      4  C   UNL     1      51.674  53.015  21.183  1.00  0.00    +0.076 A 
ATOM      5  N   UNL     1      52.188  53.335  18.983  1.00  0.00    -0.175 NA
ATOM      6  C   UNL     1      51.573  51.793  20.568  1.00  0.00    +0.059 A 
ATOM      7  C   UNL     1      52.245  55.401  20.316  1.00  0.00    +0.071 C 
ATOM      8  C   UNL     1      51.239  50.452  21.104  1.00  0.00    +0.069 C 
BRANCH   4   9
ATOM      9  N   UNL     1      51.459  53.252  22.487  1.00  0.00    -0.396 N 
ATOM     10  H   UNL     1      50.781  52.720  23.005  1.00  0.00    +0.156 HD
ATOM     11  H   UNL     1      52.201  53.607  23.084  1.00  0.00    +0.156 HD
ENDBRANCH   4   9
ENDBRANCH   1   2
BRANCH   1  12
ATOM     12  C   UNL     1      50.406  51.146  17.501  1.00  0.00    +0.242 C 
ATOM     13  O   UNL     1      49.621  52.079  17.641  1.00  0.00    -0.273 OA
ATOM     14  N   UNL     1      50.062  49.999  16.816  1.00  0.00    -0.346 N 
ATOM     15  H   UNL     1      50.730  49.221  16.882  1.00  0.00    +0.164 HD
BRANCH  14  16
ATOM     16  C   UNL     1      48.686  49.755  16.391  1.00  0.00    +0.145 C 
ATOM     17  C   UNL     1      48.618  48.531  15.480  1.00  0.00    +0.092 C 
ATOM     18  C   UNL     1      47.764  49.365  17.572  1.00  0.00    +0.207 C 
ATOM     19  C   UNL     1      48.647  47.368  16.462  1.00  0.00    +0.264 C 
ATOM     20  N   UNL     1      47.775  47.824  17.595  1.00  0.00    -0.331 N 
ATOM     21  C   UNL     1      46.293  49.722  17.387  1.00  0.00    +0.073 C 
ATOM     22  C   UNL     1      46.344  47.349  17.547  1.00  0.00    +0.262 C 
ATOM     23  C   UNL     1      45.552  48.546  18.003  1.00  0.00    +0.068 C 
ATOM     24  H   UNL     1      48.209  47.537  18.493  1.00  0.00    +0.348 HD
ENDBRANCH  14  16
ENDBRANCH   1  12
TORSDOF 4
ENDMDL
MODEL 4
REMARK VINA RESULT:    -7.321      2.575      3.952
REMARK INTER + INTRA:          -9.175
REMARK INTER:                  -8.549
REMARK INTRA:                  -0.626
REMARK UNBOUND:                -0.356
REMARK SMILES Cc1nn(CC(=O)N[C@H]2CC[NH+]3CCC[C@H]23)c(C)c1N
REMARK SMILES IDX 5 1 4 2 2 3 19 4 3 5 17 6 1 7 18 8 20 9 6 12 7 13 8 14 9 16
REMARK SMILES IDX 10 17 16 18 11 19 12 20 15 21 13 22 14 23
REMARK H PARENT 20 10 20 11 8 15 12 24
ROOT
ATOM      1  C   UNL     1      50.205  52.499  17.745  1.00  0.00    +0.244 C 
ENDROOT
BRANCH   1   2
ATOM      2  N   UNL     1      50.595  51.731  18.921  1.00  0.00    -0.258 N 
ATOM      3  C   UNL     1      50.677  50.035  20.198  1.00  0.00    +0.083 A 
ATOM      4  C   UNL     1      51.545  51.013  20.747  1.00  0.00    +0.076 A 
ATOM      5  N   UNL     1      50.048  50.494  19.105  1.00  0.00    -0.175 NA
ATOM      6  C   UNL     1      51.456  52.110  19.927  1.00  0.00    +0.059 A 
ATOM      7  C   UNL     1      50.435  48.660  20.697  1.00  0.00    +0.071 C 
ATOM      8  C   UNL     1      52.115  53.436  19.992  1.00  0.00    +0.069 C 
BRANCH   4   9
ATOM      9  N   UNL     1      52.316  50.918  21.841  1.00  0.00    -0.396 N 
ATOM     10  H   UNL     1      52.589  50.022  22.206  1.00  0.00    +0.156 HD
ATOM     11  H   UNL     1      52.989  51.644  22.073  1.00  0.00    +0.156 HD
ENDBRANCH   4   9
ENDBRANCH   1   2
BRANCH   1  12
ATOM     12  C   UNL     1      48.828  52.059  17.305  1.00  0.00    +0.242 C 
ATOM     13  O   UNL     1      47.788  52.605  17.663  1.00  0.00    -0.273 OA
ATOM     14  N   UNL     1      48.823  50.923  16.522  1.00  0.00    -0.346 N 
ATOM     15  H   UNL     1      49.732  50.459  16.402  1.00  0.00    +0.164 HD
BRANCH  14  16
ATOM     16  C   UNL     1      47.585  50.201  16.242  1.00  0.00    +0.145 C 
ATOM     17  C   UNL     1      47.855  49.015  15.320  1.00  0.00    +0.092 C 
ATOM     18  C   UNL     1      46.991  49.534  17.507  1.00  0.00    +0.207 C 
ATOM     19  C   UNL     1      48.398  47.956  16.270  1.00  0.00    +0.264 C 
ATOM     20  N   UNL     1      47.548  48.096  17.498  1.00  0.00    -0.331 N 
ATOM     21  C   UNL     1      45.478  49.346  17.488  1.00  0.00    +0.073 C 
ATOM     22  C   UNL     1      46.379  47.146  17.595  1.00  0.00    +0.262 C 
ATOM     23  C   UNL     1      45.269  47.996  18.156  1.00  0.00    +0.068 C 
ATOM     24  H   UNL     1      48.148  47.998  18.339  1.00  0.00    +0.348 HD
ENDBRANCH  14  16
ENDBRANCH   1  12
TORSDOF 4
ENDMDL
MODEL 5
REMARK VINA RESULT:    -6.887      2.327      3.776
REMARK INTER + INTRA:          -8.652
REMARK INTER:                  -8.095
REMARK INTRA:                  -0.557
REMARK UNBOUND:                -0.356
REMARK SMILES Cc1nn(CC(=O)N[C@H]2CC[NH+]3CCC[C@H]23)c(C)c1N
REMARK SMILES IDX 5 1 4 2 2 3 19 4 3 5 17 6 1 7 18 8 20 9 6 12 7 13 8 14 9 16
REMARK SMILES IDX 10 17 16 18 11 19 12 20 15 21 13 22 14 23
REMARK H PARENT 20 10 20 11 8 15 12 24
ROOT
ATOM      1  C   UNL     1      49.301  52.709  17.762  1.00  0.00    +0.244 C 
ENDROOT
BRANCH   1   2
ATOM      2  N   UNL     1      50.016  52.671  19.033  1.00  0.00    -0.258 N 
ATOM      3  C   UNL     1      51.322  51.873  20.507  1.00  0.00    +0.083 A 
ATOM      4  C   UNL     1      50.921  53.159  20.955  1.00  0.00    +0.076 A 
ATOM      5  N   UNL     1      50.722  51.547  19.351  1.00  0.00    -0.175 NA
ATOM      6  C   UNL     1      50.057  53.644  20.006  1.00  0.00    +0.059 A 
ATOM      7  C   UNL     1      52.272  50.944  21.162  1.00  0.00    +0.071 C 
ATOM      8  C   UNL     1      49.309  54.922  19.926  1.00  0.00    +0.069 C 
BRANCH   4   9
ATOM      9  N   UNL     1      51.296  53.802  22.071  1.00  0.00    -0.396 N 
ATOM     10  H   UNL     1      50.651  53.941  22.830  1.00  0.00    +0.156 HD
ATOM     11  H   UNL     1      52.260  53.778  22.390  1.00  0.00    +0.156 HD
ENDBRANCH   4   9
ENDBRANCH   1   2
BRANCH   1  12
ATOM     12  C   UNL     1      49.232  51.311  17.195  1.00  0.00    +0.242 C 
ATOM     13  O   UNL     1      50.004  50.878  16.343  1.00  0.00    -0.273 OA
ATOM     14  N   UNL     1      48.163  50.570  17.653  1.00  0.00    -0.346 N 
ATOM     15  H   UNL     1      47.493  51.072  18.250  1.00  0.00    +0.164 HD
BRANCH  14  16
ATOM     16  C   UNL     1      47.779  49.315  17.012  1.00  0.00    +0.145 C 
ATOM     17  C   UNL     1      47.885  48.156  18.000  1.00  0.00    +0.092 C 
ATOM     18  C   UNL     1      46.287  49.292  16.602  1.00  0.00    +0.207 C 
ATOM     19  C   UNL     1      46.600  48.273  18.807  1.00  0.00    +0.264 C 
ATOM     20  N   UNL     1      45.558  48.629  17.788  1.00  0.00    -0.331 N 
ATOM     21  C   UNL     1      45.956  48.395  15.415  1.00  0.00    +0.073 C 
ATOM     22  C   UNL     1      44.752  47.473  17.249  1.00  0.00    +0.262 C 
ATOM     23  C   UNL     1      44.612  47.784  15.782  1.00  0.00    +0.068 C 
ATOM     24  H   UNL     1      44.920  49.342  18.189  1.00  0.00    +0.348 HD
ENDBRANCH  14  16
ENDBRANCH   1  12
TORSDOF 4
ENDMDL
