MODEL 1
REMARK VINA RESULT:    -6.967      0.000      0.000
REMARK INTER + INTRA:          -8.783
REMARK INTER:                  -8.596
REMARK INTRA:                  -0.187
REMARK UNBOUND:                -0.187
REMARK SMILES O=C(CNC(=O)C1CC1)N[C@H]1CCCNC1=O
REMARK SMILES IDX 10 1 2 2 1 3 11 5 13 6 12 7 14 8 15 9 16 10 17 11 3 13 4 14
REMARK SMILES IDX 5 15 6 16 7 18 8 19 9 20
REMARK H PARENT 10 4 15 12 4 17
ROOT
ATOM      1  N   UNL     1      51.497  54.680  20.907  1.00  0.00    -0.343 N 
ATOM      2  C   UNL     1      51.591  55.458  22.036  1.00  0.00    +0.240 C 
ATOM      3  O   UNL     1      51.943  55.018  23.130  1.00  0.00    -0.273 OA
ATOM      4  H   UNL     1      51.422  55.131  19.998  1.00  0.00    +0.164 HD
ENDROOT
BRANCH   1   5
ATOM      5  C   UNL     1      51.944  53.294  20.894  1.00  0.00    +0.171 C 
ATOM      6  C   UNL     1      51.247  50.850  21.179  1.00  0.00    +0.024 C 
ATOM      7  C   UNL     1      50.848  52.325  21.344  1.00  0.00    +0.037 C 
ATOM      8  C   UNL     1      52.489  50.644  20.316  1.00  0.00    +0.116 C 
ATOM      9  N   UNL     1      52.537  51.591  19.231  1.00  0.00    -0.354 N 
ATOM     10  C   UNL     1      52.374  52.933  19.462  1.00  0.00    +0.242 C 
ATOM     11  O   UNL     1      52.584  53.770  18.586  1.00  0.00    -0.273 OA
ATOM     12  H   UNL     1      52.924  51.339  18.328  1.00  0.00    +0.163 HD
ENDBRANCH   1   5
BRANCH   2  13
ATOM     13  C   UNL     1      51.207  56.920  21.819  1.00  0.00    +0.216 C 
BRANCH  13  14
ATOM     14  N   UNL     1      49.958  56.999  21.095  1.00  0.00    -0.347 N 
ATOM     15  C   UNL     1      48.960  57.847  21.483  1.00  0.00    +0.223 C 
ATOM     16  O   UNL     1      49.009  58.577  22.462  1.00  0.00    -0.275 OA
ATOM     17  H   UNL     1      49.848  56.411  20.276  1.00  0.00    +0.164 HD
BRANCH  15  18
ATOM     18  C   UNL     1      47.748  57.797  20.629  1.00  0.00    +0.078 C 
ATOM     19  C   UNL     1      47.447  58.948  19.698  1.00  0.00    +0.014 C 
ATOM     20  C   UNL     1      47.844  57.617  19.132  1.00  0.00    +0.014 C 
ENDBRANCH  15  18
ENDBRANCH  13  14
ENDBRANCH   2  13
TORSDOF 4
ENDMDL
MODEL 2
REMARK VINA RESULT:    -6.690      3.338      6.108
REMARK INTER + INTRA:          -8.441
REMARK INTER:                  -8.163
REMARK INTRA:                  -0.278
REMARK UNBOUND:                -0.187
REMARK SMILES O=C(CNC(=O)C1CC1)N[C@H]1CCCNC1=O
REMARK SMILES IDX 10 1 2 2 1 3 11 5 13 6 12 7 14 8 15 9 16 10 17 11 3 13 4 14
REMARK SMILES IDX 5 15 6 16 7 18 8 19 9 20
REMARK H PARENT 10 4 15 12 4 17
ROOT
ATOM      1  N   UNL     1      51.317  52.610  19.471  1.00  0.00    -0.343 N 
ATOM      2  C   UNL     1      52.156  52.341  18.417  1.00  0.00    +0.240 C 
ATOM      3  O   UNL     1      53.097  53.068  18.103  1.00  0.00    -0.273 OA
ATOM      4  H   UNL     1      50.706  51.875  19.820  1.00  0.00    +0.164 HD
ENDROOT
BRANCH   1   5
ATOM      5  C   UNL     1      51.568  53.715  20.387  1.00  0.00    +0.171 C 
ATOM      6  C   UNL     1      50.603  55.825  21.462  1.00  0.00    +0.024 C 
ATOM      7  C   UNL     1      50.433  54.742  20.386  1.00  0.00    +0.037 C 
ATOM      8  C   UNL     1      51.664  55.488  22.508  1.00  0.00    +0.116 C 
ATOM      9  N   UNL     1      51.674  54.080  22.811  1.00  0.00    -0.354 N 
ATOM     10  C   UNL     1      51.726  53.146  21.807  1.00  0.00    +0.242 C 
ATOM     11  O   UNL     1      51.913  51.954  22.043  1.00  0.00    -0.273 OA
ATOM     12  H   UNL     1      51.884  53.743  23.743  1.00  0.00    +0.163 HD
ENDBRANCH   1   5
BRANCH   2  13
ATOM     13  C   UNL     1      51.809  51.063  17.656  1.00  0.00    +0.216 C 
BRANCH  13  14
ATOM     14  N   UNL     1      50.515  51.200  17.026  1.00  0.00    -0.347 N 
ATOM     15  C   UNL     1      49.378  50.736  17.622  1.00  0.00    +0.223 C 
ATOM     16  O   UNL     1      49.343  50.154  18.697  1.00  0.00    -0.275 OA
ATOM     17  H   UNL     1      50.474  51.666  16.126  1.00  0.00    +0.164 HD
BRANCH  15  18
ATOM     18  C   UNL     1      48.140  50.958  16.836  1.00  0.00    +0.078 C 
ATOM     19  C   UNL     1      47.642  49.871  15.911  1.00  0.00    +0.014 C 
ATOM     20  C   UNL     1      46.862  50.214  17.146  1.00  0.00    +0.014 C 
ENDBRANCH  15  18
ENDBRANCH  13  14
ENDBRANCH   2  13
TORSDOF 4
ENDMDL
MODEL 3
REMARK VINA RESULT:    -6.679      2.848      6.628
REMARK INTER + INTRA:          -8.427
REMARK INTER:                  -8.285
REMARK INTRA:                  -0.143
REMARK UNBOUND:                -0.187
REMARK SMILES O=C(CNC(=O)C1CC1)N[C@H]1CCCNC1=O
REMARK SMILES IDX 10 1 2 2 1 3 11 5 13 6 12 7 14 8 15 9 16 10 17 11 3 13 4 14
REMARK SMILES IDX 5 15 6 16 7 18 8 19 9 20
REMARK H PARENT 10 4 15 12 4 17
ROOT
ATOM      1  N   UNL     1      50.753  53.706  20.847  1.00  0.00    -0.343 N 
ATOM      2  C   UNL     1      50.932  53.012  19.674  1.00  0.00    +0.240 C 
ATOM      3  O   UNL     1      51.005  53.557  18.574  1.00  0.00    -0.273 OA
ATOM      4  H   UNL     1      50.923  53.235  21.734  1.00  0.00    +0.164 HD
ENDROOT
BRANCH   1   5
ATOM      5  C   UNL     1      50.775  55.162  20.886  1.00  0.00    +0.171 C 
ATOM      6  C   UNL     1      49.360  57.292  20.927  1.00  0.00    +0.024 C 
ATOM      7  C   UNL     1      49.378  55.769  20.725  1.00  0.00    +0.037 C 
ATOM      8  C   UNL     1      50.638  57.842  21.558  1.00  0.00    +0.116 C 
ATOM      9  N   UNL     1      51.173  56.931  22.537  1.00  0.00    -0.354 N 
ATOM     10  C   UNL     1      51.361  55.606  22.236  1.00  0.00    +0.242 C 
ATOM     11  O   UNL     1      51.975  54.853  22.989  1.00  0.00    -0.273 OA
ATOM     12  H   UNL     1      51.644  57.269  23.369  1.00  0.00    +0.163 HD
ENDBRANCH   1   5
BRANCH   2  13
ATOM     13  C   UNL     1      51.020  51.497  19.854  1.00  0.00    +0.216 C 
BRANCH  13  14
ATOM     14  N   UNL     1      50.032  50.845  19.025  1.00  0.00    -0.347 N 
ATOM     15  C   UNL     1      49.833  49.495  19.080  1.00  0.00    +0.223 C 
ATOM     16  O   UNL     1      50.466  48.726  19.789  1.00  0.00    -0.275 OA
ATOM     17  H   UNL     1      49.477  51.425  18.405  1.00  0.00    +0.164 HD
BRANCH  15  18
ATOM     18  C   UNL     1      48.783  48.994  18.160  1.00  0.00    +0.078 C 
ATOM     19  C   UNL     1      47.392  48.732  18.691  1.00  0.00    +0.014 C 
ATOM     20  C   UNL     1      47.624  49.864  17.734  1.00  0.00    +0.014 C 
ENDBRANCH  15  18
ENDBRANCH  13  14
ENDBRANCH   2  13
TORSDOF 4
ENDMDL
MODEL 4
REMARK VINA RESULT:    -6.631      1.981      2.765
REMARK INTER + INTRA:          -8.369
REMARK INTER:                  -8.307
REMARK INTRA:                  -0.061
REMARK UNBOUND:                -0.187
REMARK SMILES O=C(CNC(=O)C1CC1)N[C@H]1CCCNC1=O
REMARK SMILES IDX 10 1 2 2 1 3 11 5 13 6 12 7 14 8 15 9 16 10 17 11 3 13 4 14
REMARK SMILES IDX 5 15 6 16 7 18 8 19 9 20
REMARK H PARENT 10 4 15 12 4 17
ROOT
ATOM      1  N   UNL     1      51.375  52.476  19.680  1.00  0.00    -0.343 N 
ATOM      2  C   UNL     1      51.702  53.404  20.640  1.00  0.00    +0.240 C 
ATOM      3  O   UNL     1      51.540  53.213  21.844  1.00  0.00    -0.273 OA
ATOM      4  H   UNL     1      51.733  52.592  18.734  1.00  0.00    +0.164 HD
ENDROOT
BRANCH   1   5
ATOM      5  C   UNL     1      50.937  51.132  20.033  1.00  0.00    +0.171 C 
ATOM      6  C   UNL     1      49.612  49.079  19.277  1.00  0.00    +0.024 C 
ATOM      7  C   UNL     1      49.957  50.553  19.009  1.00  0.00    +0.037 C 
ATOM      8  C   UNL     1      50.541  48.406  20.285  1.00  0.00    +0.116 C 
ATOM      9  N   UNL     1      51.896  48.877  20.146  1.00  0.00    -0.354 N 
ATOM     10  C   UNL     1      52.172  50.221  20.115  1.00  0.00    +0.242 C 
ATOM     11  O   UNL     1      53.325  50.645  20.175  1.00  0.00    -0.273 OA
ATOM     12  H   UNL     1      52.686  48.264  20.310  1.00  0.00    +0.163 HD
ENDBRANCH   1   5
BRANCH   2  13
ATOM     13  C   UNL     1      52.275  54.704  20.079  1.00  0.00    +0.216 C 
BRANCH  13  14
ATOM     14  N   UNL     1      51.229  55.696  19.966  1.00  0.00    -0.347 N 
ATOM     15  C   UNL     1      51.028  56.635  20.937  1.00  0.00    +0.223 C 
ATOM     16  O   UNL     1      51.670  56.712  21.974  1.00  0.00    -0.275 OA
ATOM     17  H   UNL     1      50.652  55.682  19.132  1.00  0.00    +0.164 HD
BRANCH  15  18
ATOM     18  C   UNL     1      49.911  57.571  20.660  1.00  0.00    +0.078 C 
ATOM     19  C   UNL     1      48.490  57.056  20.665  1.00  0.00    +0.014 C 
ATOM     20  C   UNL     1      48.947  57.994  21.743  1.00  0.00    +0.014 C 
ENDBRANCH  15  18
ENDBRANCH  13  14
ENDBRANCH   2  13
TORSDOF 4
ENDMDL
MODEL 5
REMARK VINA RESULT:    -6.290      3.173      3.594
REMARK INTER + INTRA:          -7.948
REMARK INTER:                  -7.714
REMARK INTRA:                  -0.234
REMARK UNBOUND:                -0.187
REMARK SMILES O=C(CNC(=O)C1CC1)N[C@H]1CCCNC1=O
REMARK SMILES IDX 10 1 2 2 1 3 11 5 13 6 12 7 14 8 15 9 16 10 17 11 3 13 4 14
REMARK SMILES IDX 5 15 6 16 7 18 8 19 9 20
REMARK H PARENT 10 4 15 12 4 17
ROOT
ATOM      1  N   UNL     1      50.122  53.086  18.171  1.00  0.00    -0.343 N 
ATOM      2  C   UNL     1      50.531  53.581  19.386  1.00  0.00    +0.240 C 
ATOM      3  O   UNL     1      50.242  53.054  20.460  1.00  0.00    -0.273 OA
ATOM      4  H   UNL     1      50.568  53.425  17.321  1.00  0.00    +0.164 HD
ENDROOT
BRANCH   1   5
ATOM      5  C   UNL     1      49.425  51.812  18.059  1.00  0.00    +0.171 C 
ATOM      6  C   UNL     1      47.577  50.517  16.855  1.00  0.00    +0.024 C 
ATOM      7  C   UNL     1      48.224  51.887  17.112  1.00  0.00    +0.037 C 
ATOM      8  C   UNL     1      48.434  49.340  17.312  1.00  0.00    +0.116 C 
ATOM      9  N   UNL     1      49.836  49.594  17.095  1.00  0.00    -0.354 N 
ATOM     10  C   UNL     1      50.414  50.760  17.529  1.00  0.00    +0.242 C 
ATOM     11  O   UNL     1      51.632  50.922  17.513  1.00  0.00    -0.273 OA
ATOM     12  H   UNL     1      50.474  48.848  16.844  1.00  0.00    +0.163 HD
ENDBRANCH   1   5
BRANCH   2  13
ATOM     13  C   UNL     1      51.368  54.855  19.290  1.00  0.00    +0.216 C 
BRANCH  13  14
ATOM     14  N   UNL     1      50.517  56.015  19.432  1.00  0.00    -0.347 N 
ATOM     15  C   UNL     1      50.292  56.592  20.650  1.00  0.00    +0.223 C 
ATOM     16  O   UNL     1      50.748  56.183  21.708  1.00  0.00    -0.275 OA
ATOM     17  H   UNL     1      50.099  56.401  18.592  1.00  0.00    +0.164 HD
BRANCH  15  18
ATOM     18  C   UNL     1      49.394  57.771  20.611  1.00  0.00    +0.078 C 
ATOM     19  C   UNL     1      47.909  57.581  20.819  1.00  0.00    +0.014 C 
ATOM     20  C   UNL     1      48.722  58.294  21.860  1.00  0.00    +0.014 C 
ENDBRANCH  15  18
ENDBRANCH  13  14
ENDBRANCH   2  13
TORSDOF 4
ENDMDL
