MODEL 1
REMARK VINA RESULT:    -7.887      0.000      0.000
REMARK INTER + INTRA:         -10.269
REMARK INTER:                  -9.501
REMARK INTRA:                  -0.768
REMARK UNBOUND:                -0.768
REMARK SMILES NNc1ccccc1S(=O)(=O)N1CCS(=O)CC1
REMARK SMILES IDX 5 1 6 2 7 3 8 4 3 5 4 6 2 7 1 9 9 12 10 13 11 14 12 15 13 16
REMARK SMILES IDX 18 17 14 18 17 19 15 20 16 21
REMARK H PARENT 2 8 1 10 1 11
ROOT
ATOM      1  C   UNL     1      47.904  57.323  20.574  1.00  0.00    +0.002 A 
ATOM      2  C   UNL     1      48.055  56.138  19.864  1.00  0.00    +0.002 A 
ATOM      3  C   UNL     1      49.223  55.398  20.009  1.00  0.00    +0.024 A 
ATOM      4  C   UNL     1      50.245  55.847  20.866  1.00  0.00    +0.107 A 
ATOM      5  C   UNL     1      50.134  57.063  21.570  1.00  0.00    +0.069 A 
ATOM      6  C   UNL     1      48.925  57.771  21.421  1.00  0.00    +0.028 A 
ENDROOT
BRANCH   5   7
ATOM      7  N   UNL     1      51.118  57.492  22.499  1.00  0.00    -0.323 N 
ATOM      8  H   UNL     1      51.107  56.941  23.377  1.00  0.00    +0.181 HD
BRANCH   7   9
ATOM      9  N   UNL     1      52.395  57.873  22.066  1.00  0.00    -0.250 NA
ATOM     10  H   UNL     1      52.354  58.333  21.156  1.00  0.00    +0.143 HD
ATOM     11  H   UNL     1      53.012  57.064  21.975  1.00  0.00    +0.143 HD
ENDBRANCH   7   9
ENDBRANCH   5   7
BRANCH   4  12
ATOM     12  S   UNL     1      51.702  54.831  20.950  1.00  0.00    +0.245 S 
ATOM     13  O   UNL     1      52.068  54.633  22.338  1.00  0.00    -0.207 OA
ATOM     14  O   UNL     1      52.658  55.366  20.003  1.00  0.00    -0.207 OA
BRANCH  12  15
ATOM     15  N   UNL     1      51.157  53.322  20.346  1.00  0.00    -0.196 NA
ATOM     16  C   UNL     1      50.935  52.251  21.369  1.00  0.00    +0.116 C 
ATOM     17  C   UNL     1      51.926  52.870  19.142  1.00  0.00    +0.116 C 
ATOM     18  C   UNL     1      52.050  51.220  21.377  1.00  0.00    +0.122 C 
ATOM     19  C   UNL     1      51.493  51.483  18.704  1.00  0.00    +0.122 C 
ATOM     20  S   UNL     1      52.019  50.194  19.873  1.00  0.00    +0.024 S 
ATOM     21  O   UNL     1      53.438  49.834  19.546  1.00  0.00    -0.259 OA
ENDBRANCH  12  15
ENDBRANCH   4  12
TORSDOF 4
ENDMDL
MODEL 2
REMARK VINA RESULT:    -7.311      2.803      6.011
REMARK INTER + INTRA:          -9.575
REMARK INTER:                  -9.138
REMARK INTRA:                  -0.437
REMARK UNBOUND:                -0.768
REMARK SMILES NNc1ccccc1S(=O)(=O)N1CCS(=O)CC1
REMARK SMILES IDX 5 1 6 2 7 3 8 4 3 5 4 6 2 7 1 9 9 12 10 13 11 14 12 15 13 16
REMARK SMILES IDX 18 17 14 18 17 19 15 20 16 21
REMARK H PARENT 2 8 1 10 1 11
ROOT
ATOM      1  C   UNL     1      48.582  49.548  18.286  1.00  0.00    +0.002 A 
ATOM      2  C   UNL     1      48.736  50.798  17.700  1.00  0.00    +0.002 A 
ATOM      3  C   UNL     1      49.835  51.580  18.036  1.00  0.00    +0.024 A 
ATOM      4  C   UNL     1      50.781  51.111  18.967  1.00  0.00    +0.107 A 
ATOM      5  C   UNL     1      50.630  49.863  19.604  1.00  0.00    +0.069 A 
ATOM      6  C   UNL     1      49.521  49.086  19.216  1.00  0.00    +0.028 A 
ENDROOT
BRANCH   5   7
ATOM      7  N   UNL     1      51.614  49.338  20.483  1.00  0.00    -0.323 N 
ATOM      8  H   UNL     1      51.202  48.870  21.311  1.00  0.00    +0.181 HD
BRANCH   7   9
ATOM      9  N   UNL     1      52.770  48.727  19.980  1.00  0.00    -0.250 NA
ATOM     10  H   UNL     1      52.767  48.713  18.960  1.00  0.00    +0.143 HD
ATOM     11  H   UNL     1      52.847  47.759  20.301  1.00  0.00    +0.143 HD
ENDBRANCH   7   9
ENDBRANCH   5   7
BRANCH   4  12
ATOM     12  S   UNL     1      52.129  52.210  19.337  1.00  0.00    +0.245 S 
ATOM     13  O   UNL     1      52.718  52.679  18.100  1.00  0.00    -0.207 OA
ATOM     14  O   UNL     1      52.946  51.567  20.346  1.00  0.00    -0.207 OA
BRANCH  12  15
ATOM     15  N   UNL     1      51.349  53.547  20.071  1.00  0.00    -0.196 NA
ATOM     16  C   UNL     1      51.317  54.809  19.263  1.00  0.00    +0.116 C 
ATOM     17  C   UNL     1      51.759  53.744  21.499  1.00  0.00    +0.116 C 
ATOM     18  C   UNL     1      52.325  55.834  19.753  1.00  0.00    +0.122 C 
ATOM     19  C   UNL     1      51.136  55.000  22.080  1.00  0.00    +0.122 C 
ATOM     20  S   UNL     1      51.848  56.516  21.372  1.00  0.00    +0.024 S 
ATOM     21  O   UNL     1      53.112  56.818  22.122  1.00  0.00    -0.259 OA
ENDBRANCH  12  15
ENDBRANCH   4  12
TORSDOF 4
ENDMDL
MODEL 3
REMARK VINA RESULT:    -6.714      4.400      6.914
REMARK INTER + INTRA:          -8.856
REMARK INTER:                  -7.780
REMARK INTRA:                  -1.076
REMARK UNBOUND:                -0.768
REMARK SMILES NNc1ccccc1S(=O)(=O)N1CCS(=O)CC1
REMARK SMILES IDX 5 1 6 2 7 3 8 4 3 5 4 6 2 7 1 9 9 12 10 13 11 14 12 15 13 16
REMARK SMILES IDX 18 17 14 18 17 19 15 20 16 21
REMARK H PARENT 2 8 1 10 1 11
ROOT
ATOM      1  C   UNL     1      45.773  48.374  18.076  1.00  0.00    +0.002 A 
ATOM      2  C   UNL     1      45.555  49.545  17.361  1.00  0.00    +0.002 A 
ATOM      3  C   UNL     1      46.644  50.296  16.932  1.00  0.00    +0.024 A 
ATOM      4  C   UNL     1      47.955  49.876  17.224  1.00  0.00    +0.107 A 
ATOM      5  C   UNL     1      48.204  48.711  17.979  1.00  0.00    +0.069 A 
ATOM      6  C   UNL     1      47.078  47.960  18.370  1.00  0.00    +0.028 A 
ENDROOT
BRANCH   5   7
ATOM      7  N   UNL     1      49.518  48.228  18.213  1.00  0.00    -0.323 N 
ATOM      8  H   UNL     1      50.116  48.270  17.368  1.00  0.00    +0.181 HD
BRANCH   7   9
ATOM      9  N   UNL     1      50.182  48.512  19.414  1.00  0.00    -0.250 NA
ATOM     10  H   UNL     1      49.563  48.980  20.076  1.00  0.00    +0.143 HD
ATOM     11  H   UNL     1      50.986  49.123  19.257  1.00  0.00    +0.143 HD
ENDBRANCH   7   9
ENDBRANCH   5   7
BRANCH   4  12
ATOM     12  S   UNL     1      49.265  50.931  16.646  1.00  0.00    +0.245 S 
ATOM     13  O   UNL     1      48.702  52.183  16.183  1.00  0.00    -0.207 OA
ATOM     14  O   UNL     1      50.110  50.136  15.780  1.00  0.00    -0.207 OA
BRANCH  12  15
ATOM     15  N   UNL     1      50.151  51.267  18.075  1.00  0.00    -0.196 NA
ATOM     16  C   UNL     1      49.681  52.444  18.873  1.00  0.00    +0.116 C 
ATOM     17  C   UNL     1      51.633  51.224  17.859  1.00  0.00    +0.116 C 
ATOM     18  C   UNL     1      50.575  53.658  18.693  1.00  0.00    +0.122 C 
ATOM     19  C   UNL     1      52.381  51.636  19.114  1.00  0.00    +0.122 C 
ATOM     20  S   UNL     1      52.201  53.408  19.476  1.00  0.00    +0.024 S 
ATOM     21  O   UNL     1      53.213  54.147  18.652  1.00  0.00    -0.259 OA
ENDBRANCH  12  15
ENDBRANCH   4  12
TORSDOF 4
ENDMDL
MODEL 4
REMARK VINA RESULT:    -5.843     10.947     12.074
REMARK INTER + INTRA:          -7.806
REMARK INTER:                  -6.786
REMARK INTRA:                  -1.020
REMARK UNBOUND:                -0.768
REMARK SMILES NNc1ccccc1S(=O)(=O)N1CCS(=O)CC1
REMARK SMILES IDX 5 1 6 2 7 3 8 4 3 5 4 6 2 7 1 9 9 12 10 13 11 14 12 15 13 16
REMARK SMILES IDX 18 17 14 18 17 19 15 20 16 21
REMARK H PARENT 2 8 1 10 1 11
ROOT
ATOM      1  C   UNL     1      46.680  65.783  16.798  1.00  0.00    +0.002 A 
ATOM      2  C   UNL     1      47.201  64.588  17.281  1.00  0.00    +0.002 A 
ATOM      3  C   UNL     1      46.369  63.702  17.954  1.00  0.00    +0.024 A 
ATOM      4  C   UNL     1      45.010  64.014  18.150  1.00  0.00    +0.107 A 
ATOM      5  C   UNL     1      44.464  65.234  17.703  1.00  0.00    +0.069 A 
ATOM      6  C   UNL     1      45.330  66.093  16.999  1.00  0.00    +0.028 A 
ENDROOT
BRANCH   5   7
ATOM      7  N   UNL     1      43.080  65.531  17.819  1.00  0.00    -0.323 N 
ATOM      8  H   UNL     1      42.477  64.721  17.585  1.00  0.00    +0.181 HD
BRANCH   7   9
ATOM      9  N   UNL     1      42.604  66.331  18.866  1.00  0.00    -0.250 NA
ATOM     10  H   UNL     1      43.135  67.199  18.938  1.00  0.00    +0.143 HD
ATOM     11  H   UNL     1      42.678  65.849  19.763  1.00  0.00    +0.143 HD
ENDBRANCH   7   9
ENDBRANCH   5   7
BRANCH   4  12
ATOM     12  S   UNL     1      44.051  62.816  19.048  1.00  0.00    +0.245 S 
ATOM     13  O   UNL     1      43.239  63.496  20.037  1.00  0.00    -0.207 OA
ATOM     14  O   UNL     1      44.948  61.748  19.437  1.00  0.00    -0.207 OA
BRANCH  12  15
ATOM     15  N   UNL     1      42.989  62.196  17.854  1.00  0.00    -0.196 NA
ATOM     16  C   UNL     1      41.526  62.326  18.151  1.00  0.00    +0.116 C 
ATOM     17  C   UNL     1      43.397  60.840  17.365  1.00  0.00    +0.116 C 
ATOM     18  C   UNL     1      40.908  61.011  18.593  1.00  0.00    +0.122 C 
ATOM     19  C   UNL     1      42.375  60.277  16.394  1.00  0.00    +0.122 C 
ATOM     20  S   UNL     1      40.819  59.821  17.218  1.00  0.00    +0.024 S 
ATOM     21  O   UNL     1      40.996  58.450  17.798  1.00  0.00    -0.259 OA
ENDBRANCH  12  15
ENDBRANCH   4  12
TORSDOF 4
ENDMDL
MODEL 5
REMARK VINA RESULT:    -5.371     11.413     13.302
REMARK INTER + INTRA:          -7.238
REMARK INTER:                  -6.235
REMARK INTRA:                  -1.003
REMARK UNBOUND:                -0.768
REMARK SMILES NNc1ccccc1S(=O)(=O)N1CCS(=O)CC1
REMARK SMILES IDX 5 1 6 2 7 3 8 4 3 5 4 6 2 7 1 9 9 12 10 13 11 14 12 15 13 16
REMARK SMILES IDX 18 17 14 18 17 19 15 20 16 21
REMARK H PARENT 2 8 1 10 1 11
ROOT
ATOM      1  C   UNL     1      46.951  62.015  18.974  1.00  0.00    +0.002 A 
ATOM      2  C   UNL     1      45.967  62.524  19.812  1.00  0.00    +0.002 A 
ATOM      3  C   UNL     1      45.121  63.524  19.344  1.00  0.00    +0.024 A 
ATOM      4  C   UNL     1      45.263  64.018  18.034  1.00  0.00    +0.107 A 
ATOM      5  C   UNL     1      46.276  63.545  17.175  1.00  0.00    +0.069 A 
ATOM      6  C   UNL     1      47.094  62.512  17.673  1.00  0.00    +0.028 A 
ENDROOT
BRANCH   5   7
ATOM      7  N   UNL     1      46.384  63.973  15.825  1.00  0.00    -0.323 N 
ATOM      8  H   UNL     1      45.462  64.086  15.366  1.00  0.00    +0.181 HD
BRANCH   7   9
ATOM      9  N   UNL     1      47.344  64.921  15.449  1.00  0.00    -0.250 NA
ATOM     10  H   UNL     1      47.093  65.853  15.782  1.00  0.00    +0.143 HD
ATOM     11  H   UNL     1      47.436  64.972  14.432  1.00  0.00    +0.143 HD
ENDBRANCH   7   9
ENDBRANCH   5   7
BRANCH   4  12
ATOM     12  S   UNL     1      44.141  65.313  17.557  1.00  0.00    +0.245 S 
ATOM     13  O   UNL     1      44.893  66.406  16.974  1.00  0.00    -0.207 OA
ATOM     14  O   UNL     1      43.248  65.543  18.673  1.00  0.00    -0.207 OA
BRANCH  12  15
ATOM     15  N   UNL     1      43.230  64.592  16.298  1.00  0.00    -0.196 NA
ATOM     16  C   UNL     1      42.252  65.489  15.603  1.00  0.00    +0.116 C 
ATOM     17  C   UNL     1      42.669  63.256  16.682  1.00  0.00    +0.116 C 
ATOM     18  C   UNL     1      40.820  65.231  16.038  1.00  0.00    +0.122 C 
ATOM     19  C   UNL     1      41.777  62.700  15.587  1.00  0.00    +0.122 C 
ATOM     20  S   UNL     1      40.219  63.624  15.431  1.00  0.00    +0.024 S 
ATOM     21  O   UNL     1      39.265  63.085  16.455  1.00  0.00    -0.259 OA
ENDBRANCH  12  15
ENDBRANCH   4  12
TORSDOF 4
ENDMDL
