MODEL 1
REMARK VINA RESULT:    -6.095      0.000      0.000
REMARK INTER + INTRA:          -8.547
REMARK INTER:                  -8.233
REMARK INTRA:                  -0.314
REMARK UNBOUND:                -0.314
REMARK SMILES Cc1[nH]ncc1CCC[NH2+]Cc1csnn1
REMARK SMILES IDX 8 1 7 2 6 3 2 4 3 5 5 6 4 7 1 8 9 10 10 11 11 14 12 15 13 16
REMARK SMILES IDX 16 17 14 18 15 19
REMARK H PARENT 3 9 10 12 10 13
ROOT
ATOM      1  C   UNL     1      51.627  53.672  21.719  1.00  0.00    +0.066 C 
ENDROOT
BRANCH   1   2
ATOM      2  C   UNL     1      50.626  54.775  21.367  1.00  0.00    +0.045 C 
BRANCH   2   3
ATOM      3  C   UNL     1      51.209  56.130  21.561  1.00  0.00    -0.007 A 
ATOM      4  C   UNL     1      50.556  57.346  21.667  1.00  0.00    +0.035 A 
ATOM      5  N   UNL     1      51.542  58.287  21.828  1.00  0.00    -0.283 N 
ATOM      6  C   UNL     1      52.578  56.462  21.678  1.00  0.00    +0.138 A 
ATOM      7  N   UNL     1      52.775  57.766  21.854  1.00  0.00    -0.184 NA
ATOM      8  C   UNL     1      49.125  57.727  21.615  1.00  0.00    +0.066 C 
ATOM      9  H   UNL     1      51.444  59.293  21.927  1.00  0.00    +0.190 HD
ENDBRANCH   2   3
ENDBRANCH   1   2
BRANCH   1  10
ATOM     10  C   UNL     1      50.986  52.296  21.844  1.00  0.00    +0.261 C 
BRANCH  10  11
ATOM     11  N   UNL     1      52.024  51.232  21.838  1.00  0.00    -0.341 N 
ATOM     12  H   UNL     1      51.722  50.397  22.361  1.00  0.00    +0.346 HD
ATOM     13  H   UNL     1      52.872  51.544  22.333  1.00  0.00    +0.346 HD
BRANCH  11  14
ATOM     14  C   UNL     1      52.448  50.759  20.477  1.00  0.00    +0.320 C 
BRANCH  14  15
ATOM     15  C   UNL     1      51.298  50.204  19.711  1.00  0.00    +0.129 A 
ATOM     16  C   UNL     1      50.508  49.114  20.036  1.00  0.00    +0.119 A 
ATOM     17  N   UNL     1      50.955  50.835  18.519  1.00  0.00    -0.137 NA
ATOM     18  S   UNL     1      49.339  48.939  18.786  1.00  0.00    -0.020 S 
ATOM     19  N   UNL     1      49.925  50.255  17.934  1.00  0.00    -0.091 NA
ENDBRANCH  14  15
ENDBRANCH  11  14
ENDBRANCH  10  11
ENDBRANCH   1  10
TORSDOF 6
ENDMDL
MODEL 2
REMARK VINA RESULT:    -6.064      2.142      2.765
REMARK INTER + INTRA:          -8.504
REMARK INTER:                  -8.142
REMARK INTRA:                  -0.363
REMARK UNBOUND:                -0.314
REMARK SMILES Cc1[nH]ncc1CCC[NH2+]Cc1csnn1
REMARK SMILES IDX 8 1 7 2 6 3 2 4 3 5 5 6 4 7 1 8 9 10 10 11 11 14 12 15 13 16
REMARK SMILES IDX 16 17 14 18 15 19
REMARK H PARENT 3 9 10 12 10 13
ROOT
ATOM      1  C   UNL     1      49.969  54.220  19.023  1.00  0.00    +0.066 C 
ENDROOT
BRANCH   1   2
ATOM      2  C   UNL     1      49.305  55.172  20.021  1.00  0.00    +0.045 C 
BRANCH   2   3
ATOM      3  C   UNL     1      50.273  55.671  21.034  1.00  0.00    -0.007 A 
ATOM      4  C   UNL     1      50.219  56.832  21.785  1.00  0.00    +0.035 A 
ATOM      5  N   UNL     1      51.351  56.830  22.560  1.00  0.00    -0.283 N 
ATOM      6  C   UNL     1      51.476  55.050  21.444  1.00  0.00    +0.138 A 
ATOM      7  N   UNL     1      52.118  55.747  22.378  1.00  0.00    -0.184 NA
ATOM      8  C   UNL     1      49.243  57.945  21.846  1.00  0.00    +0.066 C 
ATOM      9  H   UNL     1      51.660  57.529  23.229  1.00  0.00    +0.190 HD
ENDBRANCH   2   3
ENDBRANCH   1   2
BRANCH   1  10
ATOM     10  C   UNL     1      48.969  53.419  18.199  1.00  0.00    +0.261 C 
BRANCH  10  11
ATOM     11  N   UNL     1      49.668  52.406  17.365  1.00  0.00    -0.341 N 
ATOM     12  H   UNL     1      50.689  52.544  17.370  1.00  0.00    +0.346 HD
ATOM     13  H   UNL     1      49.407  52.504  16.374  1.00  0.00    +0.346 HD
BRANCH  11  14
ATOM     14  C   UNL     1      49.423  50.977  17.754  1.00  0.00    +0.320 C 
BRANCH  14  15
ATOM     15  C   UNL     1      50.531  50.444  18.595  1.00  0.00    +0.129 A 
ATOM     16  C   UNL     1      51.852  50.859  18.623  1.00  0.00    +0.119 A 
ATOM     17  N   UNL     1      50.231  49.401  19.466  1.00  0.00    -0.137 NA
ATOM     18  S   UNL     1      52.669  49.885  19.782  1.00  0.00    -0.020 S 
ATOM     19  N   UNL     1      51.288  49.016  20.156  1.00  0.00    -0.091 NA
ENDBRANCH  14  15
ENDBRANCH  11  14
ENDBRANCH  10  11
ENDBRANCH   1  10
TORSDOF 6
ENDMDL
MODEL 3
REMARK VINA RESULT:    -6.016      4.218      8.352
REMARK INTER + INTRA:          -8.440
REMARK INTER:                  -8.133
REMARK INTRA:                  -0.307
REMARK UNBOUND:                -0.314
REMARK SMILES Cc1[nH]ncc1CCC[NH2+]Cc1csnn1
REMARK SMILES IDX 8 1 7 2 6 3 2 4 3 5 5 6 4 7 1 8 9 10 10 11 11 14 12 15 13 16
REMARK SMILES IDX 16 17 14 18 15 19
REMARK H PARENT 3 9 10 12 10 13
ROOT
ATOM      1  C   UNL     1      48.023  49.791  18.192  1.00  0.00    +0.066 C 
ENDROOT
BRANCH   1   2
ATOM      2  C   UNL     1      47.392  48.492  18.703  1.00  0.00    +0.045 C 
BRANCH   2   3
ATOM      3  C   UNL     1      46.095  48.209  18.032  1.00  0.00    -0.007 A 
ATOM      4  C   UNL     1      44.970  47.589  18.548  1.00  0.00    +0.035 A 
ATOM      5  N   UNL     1      44.054  47.566  17.528  1.00  0.00    -0.283 N 
ATOM      6  C   UNL     1      45.737  48.519  16.699  1.00  0.00    +0.138 A 
ATOM      7  N   UNL     1      44.496  48.142  16.403  1.00  0.00    -0.184 NA
ATOM      8  C   UNL     1      44.666  47.002  19.874  1.00  0.00    +0.066 C 
ATOM      9  H   UNL     1      43.115  47.178  17.531  1.00  0.00    +0.190 HD
ENDBRANCH   2   3
ENDBRANCH   1   2
BRANCH   1  10
ATOM     10  C   UNL     1      49.213  49.560  17.271  1.00  0.00    +0.261 C 
BRANCH  10  11
ATOM     11  N   UNL     1      50.452  50.128  17.863  1.00  0.00    -0.341 N 
ATOM     12  H   UNL     1      51.267  50.001  17.245  1.00  0.00    +0.346 HD
ATOM     13  H   UNL     1      50.710  49.626  18.725  1.00  0.00    +0.346 HD
BRANCH  11  14
ATOM     14  C   UNL     1      50.389  51.590  18.199  1.00  0.00    +0.320 C 
BRANCH  14  15
ATOM     15  C   UNL     1      50.916  51.859  19.565  1.00  0.00    +0.129 A 
ATOM     16  C   UNL     1      50.611  52.921  20.400  1.00  0.00    +0.119 A 
ATOM     17  N   UNL     1      51.829  50.950  20.092  1.00  0.00    -0.137 NA
ATOM     18  S   UNL     1      51.517  52.710  21.848  1.00  0.00    -0.020 S 
ATOM     19  N   UNL     1      52.222  51.292  21.304  1.00  0.00    -0.091 NA
ENDBRANCH  14  15
ENDBRANCH  11  14
ENDBRANCH  10  11
ENDBRANCH   1  10
TORSDOF 6
ENDMDL
MODEL 4
REMARK VINA RESULT:    -5.818      4.797      8.798
REMARK INTER + INTRA:          -8.173
REMARK INTER:                  -7.748
REMARK INTRA:                  -0.424
REMARK UNBOUND:                -0.314
REMARK SMILES Cc1[nH]ncc1CCC[NH2+]Cc1csnn1
REMARK SMILES IDX 8 1 7 2 6 3 2 4 3 5 5 6 4 7 1 8 9 10 10 11 11 14 12 15 13 16
REMARK SMILES IDX 16 17 14 18 15 19
REMARK H PARENT 3 9 10 12 10 13
ROOT
ATOM      1  C   UNL     1      47.139  50.036  17.222  1.00  0.00    +0.066 C 
ENDROOT
BRANCH   1   2
ATOM      2  C   UNL     1      45.678  49.801  17.616  1.00  0.00    +0.045 C 
BRANCH   2   3
ATOM      3  C   UNL     1      45.196  48.466  17.173  1.00  0.00    -0.007 A 
ATOM      4  C   UNL     1      44.833  47.376  17.946  1.00  0.00    +0.035 A 
ATOM      5  N   UNL     1      44.472  46.393  17.060  1.00  0.00    -0.283 N 
ATOM      6  C   UNL     1      45.008  48.024  15.843  1.00  0.00    +0.138 A 
ATOM      7  N   UNL     1      44.555  46.775  15.779  1.00  0.00    -0.184 NA
ATOM      8  C   UNL     1      44.805  47.147  19.409  1.00  0.00    +0.066 C 
ATOM      9  H   UNL     1      44.159  45.447  17.259  1.00  0.00    +0.190 HD
ENDBRANCH   2   3
ENDBRANCH   1   2
BRANCH   1  10
ATOM     10  C   UNL     1      48.122  49.203  18.033  1.00  0.00    +0.261 C 
BRANCH  10  11
ATOM     11  N   UNL     1      49.435  49.118  17.339  1.00  0.00    -0.341 N 
ATOM     12  H   UNL     1      49.382  48.538  16.489  1.00  0.00    +0.346 HD
ATOM     13  H   UNL     1      50.130  48.638  17.928  1.00  0.00    +0.346 HD
BRANCH  11  14
ATOM     14  C   UNL     1      50.028  50.435  16.929  1.00  0.00    +0.320 C 
BRANCH  14  15
ATOM     15  C   UNL     1      50.775  51.069  18.050  1.00  0.00    +0.129 A 
ATOM     16  C   UNL     1      52.043  50.756  18.510  1.00  0.00    +0.119 A 
ATOM     17  N   UNL     1      50.146  52.102  18.738  1.00  0.00    -0.137 NA
ATOM     18  S   UNL     1      52.385  51.814  19.823  1.00  0.00    -0.020 S 
ATOM     19  N   UNL     1      50.904  52.583  19.705  1.00  0.00    -0.091 NA
ENDBRANCH  14  15
ENDBRANCH  11  14
ENDBRANCH  10  11
ENDBRANCH   1  10
TORSDOF 6
ENDMDL
MODEL 5
REMARK VINA RESULT:    -5.802      1.970      2.223
REMARK INTER + INTRA:          -8.151
REMARK INTER:                  -7.860
REMARK INTRA:                  -0.291
REMARK UNBOUND:                -0.314
REMARK SMILES Cc1[nH]ncc1CCC[NH2+]Cc1csnn1
REMARK SMILES IDX 8 1 7 2 6 3 2 4 3 5 5 6 4 7 1 8 9 10 10 11 11 14 12 15 13 16
REMARK SMILES IDX 16 17 14 18 15 19
REMARK H PARENT 3 9 10 12 10 13
ROOT
ATOM      1  C   UNL     1      50.385  54.317  19.265  1.00  0.00    +0.066 C 
ENDROOT
BRANCH   1   2
ATOM      2  C   UNL     1      49.778  54.892  20.548  1.00  0.00    +0.045 C 
BRANCH   2   3
ATOM      3  C   UNL     1      50.716  55.821  21.233  1.00  0.00    -0.007 A 
ATOM      4  C   UNL     1      50.471  57.091  21.725  1.00  0.00    +0.035 A 
ATOM      5  N   UNL     1      51.661  57.523  22.254  1.00  0.00    -0.283 N 
ATOM      6  C   UNL     1      52.081  55.594  21.526  1.00  0.00    +0.138 A 
ATOM      7  N   UNL     1      52.645  56.620  22.157  1.00  0.00    -0.184 NA
ATOM      8  C   UNL     1      49.262  57.948  21.739  1.00  0.00    +0.066 C 
ATOM      9  H   UNL     1      51.870  58.415  22.694  1.00  0.00    +0.190 HD
ENDBRANCH   2   3
ENDBRANCH   1   2
BRANCH   1  10
ATOM     10  C   UNL     1      50.416  52.794  19.244  1.00  0.00    +0.261 C 
BRANCH  10  11
ATOM     11  N   UNL     1      50.676  52.294  17.869  1.00  0.00    -0.341 N 
ATOM     12  H   UNL     1      51.541  52.690  17.473  1.00  0.00    +0.346 HD
ATOM     13  H   UNL     1      49.938  52.606  17.220  1.00  0.00    +0.346 HD
BRANCH  11  14
ATOM     14  C   UNL     1      50.784  50.802  17.740  1.00  0.00    +0.320 C 
BRANCH  14  15
ATOM     15  C   UNL     1      49.460  50.143  17.913  1.00  0.00    +0.129 A 
ATOM     16  C   UNL     1      49.152  49.052  18.710  1.00  0.00    +0.119 A 
ATOM     17  N   UNL     1      48.385  50.663  17.200  1.00  0.00    -0.137 NA
ATOM     18  S   UNL     1      47.473  48.733  18.512  1.00  0.00    -0.020 S 
ATOM     19  N   UNL     1      47.269  49.999  17.436  1.00  0.00    -0.091 NA
ENDBRANCH  14  15
ENDBRANCH  11  14
ENDBRANCH  10  11
ENDBRANCH   1  10
TORSDOF 6
ENDMDL
