MODEL 1
REMARK VINA RESULT:    -8.050      0.000      0.000
REMARK INTER + INTRA:         -11.026
REMARK INTER:                 -10.402
REMARK INTRA:                  -0.624
REMARK UNBOUND:                -0.624
REMARK SMILES C[C@@H](NS(=O)(=O)c1cccc([N+](=O)[O-])c1)[C@H]1CCC[NH2+]C1
REMARK SMILES IDX 4 1 5 2 6 3 3 4 2 6 1 7 16 8 17 9 21 10 18 11 20 12 19 13
REMARK SMILES IDX 7 16 8 17 15 18 9 19 11 20 10 21 12 22 13 23 14 24
REMARK H PARENT 3 5 20 14 20 15
ROOT
ATOM      1  S   UNL     1      51.725  53.424  19.721  1.00  0.00    +0.241 S 
ATOM      2  O   UNL     1      52.271  52.554  20.733  1.00  0.00    -0.207 OA
ATOM      3  O   UNL     1      52.358  53.625  18.438  1.00  0.00    -0.207 OA
ENDROOT
BRANCH   1   4
ATOM      4  N   UNL     1      50.151  52.893  19.337  1.00  0.00    -0.208 NA
ATOM      5  H   UNL     1      49.511  53.530  19.818  1.00  0.00    +0.141 HD
BRANCH   4   6
ATOM      6  C   UNL     1      49.858  52.544  17.929  1.00  0.00    +0.075 C 
ATOM      7  C   UNL     1      48.391  52.851  17.630  1.00  0.00    +0.026 C 
BRANCH   6   8
ATOM      8  C   UNL     1      50.207  51.053  17.664  1.00  0.00    +0.062 C 
ATOM      9  C   UNL     1      49.918  50.150  18.886  1.00  0.00    +0.017 C 
ATOM     10  C   UNL     1      49.576  50.504  16.378  1.00  0.00    +0.265 C 
ATOM     11  C   UNL     1      48.660  49.309  18.703  1.00  0.00    +0.062 C 
ATOM     12  N   UNL     1      49.602  49.011  16.414  1.00  0.00    -0.346 N 
ATOM     13  C   UNL     1      48.736  48.407  17.476  1.00  0.00    +0.260 C 
ATOM     14  H   UNL     1      50.573  48.691  16.546  1.00  0.00    +0.346 HD
ATOM     15  H   UNL     1      49.318  48.635  15.499  1.00  0.00    +0.346 HD
ENDBRANCH   6   8
ENDBRANCH   4   6
ENDBRANCH   1   4
BRANCH   1  16
ATOM     16  C   UNL     1      51.414  55.014  20.439  1.00  0.00    +0.089 A 
ATOM     17  C   UNL     1      50.098  55.427  20.679  1.00  0.00    +0.022 A 
ATOM     18  C   UNL     1      52.490  55.861  20.714  1.00  0.00    +0.107 A 
ATOM     19  C   UNL     1      49.854  56.690  21.224  1.00  0.00    +0.008 A 
ATOM     20  C   UNL     1      52.232  57.116  21.280  1.00  0.00    +0.270 A 
ATOM     21  C   UNL     1      50.921  57.538  21.534  1.00  0.00    +0.086 A 
BRANCH  20  22
ATOM     22  N   UNL     1      53.357  57.977  21.652  1.00  0.00    +0.062 N 
ATOM     23  O   UNL     1      54.500  57.543  21.467  1.00  0.00    -0.258 OA
ATOM     24  O   UNL     1      53.082  59.101  22.094  1.00  0.00    -0.258 OA
ENDBRANCH  20  22
ENDBRANCH   1  16
TORSDOF 5
ENDMDL
MODEL 2
REMARK VINA RESULT:    -7.863      2.348      2.948
REMARK INTER + INTRA:         -10.785
REMARK INTER:                 -10.318
REMARK INTRA:                  -0.467
REMARK UNBOUND:                -0.624
REMARK SMILES C[C@@H](NS(=O)(=O)c1cccc([N+](=O)[O-])c1)[C@H]1CCC[NH2+]C1
REMARK SMILES IDX 4 1 5 2 6 3 3 4 2 6 1 7 16 8 17 9 21 10 18 11 20 12 19 13
REMARK SMILES IDX 7 16 8 17 15 18 9 19 11 20 10 21 12 22 13 23 14 24
REMARK H PARENT 3 5 20 14 20 15
ROOT
ATOM      1  S   UNL     1      52.390  50.538  19.130  1.00  0.00    +0.241 S 
ATOM      2  O   UNL     1      53.204  49.605  19.869  1.00  0.00    -0.207 OA
ATOM      3  O   UNL     1      52.725  50.983  17.797  1.00  0.00    -0.207 OA
ENDROOT
BRANCH   1   4
ATOM      4  N   UNL     1      50.820  49.889  18.976  1.00  0.00    -0.208 NA
ATOM      5  H   UNL     1      50.375  50.002  19.890  1.00  0.00    +0.141 HD
BRANCH   4   6
ATOM      6  C   UNL     1      50.037  50.242  17.771  1.00  0.00    +0.075 C 
ATOM      7  C   UNL     1      49.314  51.567  18.012  1.00  0.00    +0.026 C 
BRANCH   6   8
ATOM      8  C   UNL     1      49.049  49.094  17.421  1.00  0.00    +0.062 C 
ATOM      9  C   UNL     1      47.781  49.113  18.306  1.00  0.00    +0.017 C 
ATOM     10  C   UNL     1      48.709  49.026  15.927  1.00  0.00    +0.265 C 
ATOM     11  C   UNL     1      46.559  49.639  17.562  1.00  0.00    +0.062 C 
ATOM     12  N   UNL     1      47.474  48.206  15.739  1.00  0.00    -0.346 N 
ATOM     13  C   UNL     1      46.237  48.819  16.318  1.00  0.00    +0.260 C 
ATOM     14  H   UNL     1      47.618  47.274  16.155  1.00  0.00    +0.346 HD
ATOM     15  H   UNL     1      47.321  48.031  14.736  1.00  0.00    +0.346 HD
ENDBRANCH   6   8
ENDBRANCH   4   6
ENDBRANCH   1   4
BRANCH   1  16
ATOM     16  C   UNL     1      52.101  51.969  20.135  1.00  0.00    +0.089 A 
ATOM     17  C   UNL     1      51.554  51.825  21.415  1.00  0.00    +0.022 A 
ATOM     18  C   UNL     1      52.379  53.235  19.614  1.00  0.00    +0.107 A 
ATOM     19  C   UNL     1      51.307  52.957  22.196  1.00  0.00    +0.008 A 
ATOM     20  C   UNL     1      52.145  54.359  20.416  1.00  0.00    +0.270 A 
ATOM     21  C   UNL     1      51.607  54.229  21.703  1.00  0.00    +0.086 A 
BRANCH  20  22
ATOM     22  N   UNL     1      52.513  55.685  19.914  1.00  0.00    +0.062 N 
ATOM     23  O   UNL     1      53.269  56.374  20.609  1.00  0.00    -0.258 OA
ATOM     24  O   UNL     1      52.068  56.009  18.804  1.00  0.00    -0.258 OA
ENDBRANCH  20  22
ENDBRANCH   1  16
TORSDOF 5
ENDMDL
MODEL 3
REMARK VINA RESULT:    -7.766      2.741      7.325
REMARK INTER + INTRA:         -10.660
REMARK INTER:                 -10.027
REMARK INTRA:                  -0.634
REMARK UNBOUND:                -0.624
REMARK SMILES C[C@@H](NS(=O)(=O)c1cccc([N+](=O)[O-])c1)[C@H]1CCC[NH2+]C1
REMARK SMILES IDX 4 1 5 2 6 3 3 4 2 6 1 7 16 8 17 9 21 10 18 11 20 12 19 13
REMARK SMILES IDX 7 16 8 17 15 18 9 19 11 20 10 21 12 22 13 23 14 24
REMARK H PARENT 3 5 20 14 20 15
ROOT
ATOM      1  S   UNL     1      52.314  51.716  19.070  1.00  0.00    +0.241 S 
ATOM      2  O   UNL     1      52.926  51.885  17.775  1.00  0.00    -0.207 OA
ATOM      3  O   UNL     1      53.034  51.211  20.215  1.00  0.00    -0.207 OA
ENDROOT
BRANCH   1   4
ATOM      4  N   UNL     1      51.703  53.223  19.585  1.00  0.00    -0.208 NA
ATOM      5  H   UNL     1      50.770  53.307  19.173  1.00  0.00    +0.141 HD
BRANCH   4   6
ATOM      6  C   UNL     1      51.872  53.592  21.007  1.00  0.00    +0.075 C 
ATOM      7  C   UNL     1      50.755  52.950  21.830  1.00  0.00    +0.026 C 
BRANCH   6   8
ATOM      8  C   UNL     1      51.894  55.139  21.160  1.00  0.00    +0.062 C 
ATOM      9  C   UNL     1      50.962  55.847  20.148  1.00  0.00    +0.017 C 
ATOM     10  C   UNL     1      51.646  55.607  22.599  1.00  0.00    +0.265 C 
ATOM     11  C   UNL     1      49.681  56.359  20.797  1.00  0.00    +0.062 C 
ATOM     12  N   UNL     1      51.269  57.053  22.589  1.00  0.00    -0.346 N 
ATOM     13  C   UNL     1      49.956  57.341  21.931  1.00  0.00    +0.260 C 
ATOM     14  H   UNL     1      52.010  57.594  22.118  1.00  0.00    +0.346 HD
ATOM     15  H   UNL     1      51.245  57.414  23.553  1.00  0.00    +0.346 HD
ENDBRANCH   6   8
ENDBRANCH   4   6
ENDBRANCH   1   4
BRANCH   1  16
ATOM     16  C   UNL     1      50.832  50.762  18.883  1.00  0.00    +0.089 A 
ATOM     17  C   UNL     1      50.672  49.571  19.601  1.00  0.00    +0.022 A 
ATOM     18  C   UNL     1      49.855  51.188  17.980  1.00  0.00    +0.107 A 
ATOM     19  C   UNL     1      49.513  48.809  19.435  1.00  0.00    +0.008 A 
ATOM     20  C   UNL     1      48.689  50.426  17.839  1.00  0.00    +0.270 A 
ATOM     21  C   UNL     1      48.512  49.236  18.558  1.00  0.00    +0.086 A 
BRANCH  20  22
ATOM     22  N   UNL     1      47.622  50.908  16.960  1.00  0.00    +0.062 N 
ATOM     23  O   UNL     1      47.880  51.854  16.206  1.00  0.00    -0.258 OA
ATOM     24  O   UNL     1      46.539  50.306  17.007  1.00  0.00    -0.258 OA
ENDBRANCH  20  22
ENDBRANCH   1  16
TORSDOF 5
ENDMDL
MODEL 4
REMARK VINA RESULT:    -7.499      4.695      8.762
REMARK INTER + INTRA:         -10.315
REMARK INTER:                  -9.662
REMARK INTRA:                  -0.653
REMARK UNBOUND:                -0.624
REMARK SMILES C[C@@H](NS(=O)(=O)c1cccc([N+](=O)[O-])c1)[C@H]1CCC[NH2+]C1
REMARK SMILES IDX 4 1 5 2 6 3 3 4 2 6 1 7 16 8 17 9 21 10 18 11 20 12 19 13
REMARK SMILES IDX 7 16 8 17 15 18 9 19 11 20 10 21 12 22 13 23 14 24
REMARK H PARENT 3 5 20 14 20 15
ROOT
ATOM      1  S   UNL     1      48.630  51.046  16.438  1.00  0.00    +0.241 S 
ATOM      2  O   UNL     1      48.207  52.380  16.090  1.00  0.00    -0.207 OA
ATOM      3  O   UNL     1      49.712  50.368  15.762  1.00  0.00    -0.207 OA
ENDROOT
BRANCH   1   4
ATOM      4  N   UNL     1      49.082  51.028  18.082  1.00  0.00    -0.208 NA
ATOM      5  H   UNL     1      48.216  51.139  18.616  1.00  0.00    +0.141 HD
BRANCH   4   6
ATOM      6  C   UNL     1      50.047  49.999  18.527  1.00  0.00    +0.075 C 
ATOM      7  C   UNL     1      49.300  48.904  19.289  1.00  0.00    +0.026 C 
BRANCH   6   8
ATOM      8  C   UNL     1      51.164  50.651  19.390  1.00  0.00    +0.062 C 
ATOM      9  C   UNL     1      51.125  52.196  19.339  1.00  0.00    +0.017 C 
ATOM     10  C   UNL     1      51.203  50.121  20.828  1.00  0.00    +0.265 C 
ATOM     11  C   UNL     1      50.558  52.806  20.615  1.00  0.00    +0.062 C 
ATOM     12  N   UNL     1      51.988  51.064  21.681  1.00  0.00    -0.346 N 
ATOM     13  C   UNL     1      51.352  52.408  21.854  1.00  0.00    +0.260 C 
ATOM     14  H   UNL     1      52.929  51.183  21.277  1.00  0.00    +0.346 HD
ATOM     15  H   UNL     1      52.144  50.647  22.608  1.00  0.00    +0.346 HD
ENDBRANCH   6   8
ENDBRANCH   4   6
ENDBRANCH   1   4
BRANCH   1  16
ATOM     16  C   UNL     1      47.217  49.976  16.432  1.00  0.00    +0.089 A 
ATOM     17  C   UNL     1      46.322  49.994  17.508  1.00  0.00    +0.022 A 
ATOM     18  C   UNL     1      47.038  49.088  15.368  1.00  0.00    +0.107 A 
ATOM     19  C   UNL     1      45.221  49.134  17.510  1.00  0.00    +0.008 A 
ATOM     20  C   UNL     1      45.918  48.247  15.374  1.00  0.00    +0.270 A 
ATOM     21  C   UNL     1      45.010  48.260  16.440  1.00  0.00    +0.086 A 
BRANCH  20  22
ATOM     22  N   UNL     1      45.674  47.374  14.224  1.00  0.00    +0.062 N 
ATOM     23  O   UNL     1      45.967  47.804  13.101  1.00  0.00    -0.258 OA
ATOM     24  O   UNL     1      45.223  46.244  14.460  1.00  0.00    -0.258 OA
ENDBRANCH  20  22
ENDBRANCH   1  16
TORSDOF 5
ENDMDL
MODEL 5
REMARK VINA RESULT:    -7.371      1.692      2.239
REMARK INTER + INTRA:         -10.149
REMARK INTER:                  -9.666
REMARK INTRA:                  -0.483
REMARK UNBOUND:                -0.624
REMARK SMILES C[C@@H](NS(=O)(=O)c1cccc([N+](=O)[O-])c1)[C@H]1CCC[NH2+]C1
REMARK SMILES IDX 4 1 5 2 6 3 3 4 2 6 1 7 16 8 17 9 21 10 18 11 20 12 19 13
REMARK SMILES IDX 7 16 8 17 15 18 9 19 11 20 10 21 12 22 13 23 14 24
REMARK H PARENT 3 5 20 14 20 15
ROOT
ATOM      1  S   UNL     1      51.689  52.460  18.798  1.00  0.00    +0.241 S 
ATOM      2  O   UNL     1      51.782  51.388  19.758  1.00  0.00    -0.207 OA
ATOM      3  O   UNL     1      52.814  52.901  18.007  1.00  0.00    -0.207 OA
ENDROOT
BRANCH   1   4
ATOM      4  N   UNL     1      50.495  52.061  17.648  1.00  0.00    -0.208 NA
ATOM      5  H   UNL     1      50.724  52.592  16.804  1.00  0.00    +0.141 HD
BRANCH   4   6
ATOM      6  C   UNL     1      50.124  50.637  17.495  1.00  0.00    +0.075 C 
ATOM      7  C   UNL     1      50.074  50.287  16.008  1.00  0.00    +0.026 C 
BRANCH   6   8
ATOM      8  C   UNL     1      48.771  50.357  18.206  1.00  0.00    +0.062 C 
ATOM      9  C   UNL     1      47.558  50.873  17.396  1.00  0.00    +0.017 C 
ATOM     10  C   UNL     1      48.602  48.892  18.628  1.00  0.00    +0.265 C 
ATOM     11  C   UNL     1      46.794  49.746  16.711  1.00  0.00    +0.062 C 
ATOM     12  N   UNL     1      47.159  48.621  18.906  1.00  0.00    -0.346 N 
ATOM     13  C   UNL     1      46.275  48.709  17.702  1.00  0.00    +0.260 C 
ATOM     14  H   UNL     1      46.822  49.281  19.623  1.00  0.00    +0.346 HD
ATOM     15  H   UNL     1      47.055  47.689  19.329  1.00  0.00    +0.346 HD
ENDBRANCH   6   8
ENDBRANCH   4   6
ENDBRANCH   1   4
BRANCH   1  16
ATOM     16  C   UNL     1      50.979  53.878  19.590  1.00  0.00    +0.089 A 
ATOM     17  C   UNL     1      49.596  54.089  19.537  1.00  0.00    +0.022 A 
ATOM     18  C   UNL     1      51.819  54.799  20.221  1.00  0.00    +0.107 A 
ATOM     19  C   UNL     1      49.042  55.219  20.143  1.00  0.00    +0.008 A 
ATOM     20  C   UNL     1      51.247  55.917  20.842  1.00  0.00    +0.270 A 
ATOM     21  C   UNL     1      49.864  56.135  20.804  1.00  0.00    +0.086 A 
BRANCH  20  22
ATOM     22  N   UNL     1      52.109  56.843  21.580  1.00  0.00    +0.062 N 
ATOM     23  O   UNL     1      52.047  58.043  21.287  1.00  0.00    -0.258 OA
ATOM     24  O   UNL     1      52.816  56.361  22.475  1.00  0.00    -0.258 OA
ENDBRANCH  20  22
ENDBRANCH   1  16
TORSDOF 5
ENDMDL
