MODEL 1
REMARK VINA RESULT:    -7.208      0.000      0.000
REMARK INTER + INTRA:         -10.228
REMARK INTER:                  -9.736
REMARK INTRA:                  -0.492
REMARK UNBOUND:                -0.492
REMARK SMILES CCCCN1C=[NH+][C@@H](c2cc(OC)cc(OC)c2)C1=[NH2+]
REMARK SMILES IDX 5 1 6 2 7 3 8 4 19 5 20 6 4 10 3 11 2 12 1 13 9 14 18 15
REMARK SMILES IDX 10 16 15 17 11 18 14 19 16 20 17 21 12 22 13 23
REMARK H PARENT 7 7 20 8 20 9
ROOT
ATOM      1  N   UNL     1      50.372  50.175  19.126  1.00  0.00    -0.200 N 
ATOM      2  C   UNL     1      50.489  50.841  17.983  1.00  0.00    +0.401 C 
ATOM      3  N   UNL     1      51.190  51.955  18.074  1.00  0.00    -0.262 N 
ATOM      4  C   UNL     1      51.656  52.092  19.464  1.00  0.00    +0.317 C 
ATOM      5  C   UNL     1      51.028  50.846  20.088  1.00  0.00    +0.300 C 
ATOM      6  N   UNL     1      51.158  50.561  21.378  1.00  0.00    -0.287 N 
ATOM      7  H   UNL     1      51.333  52.581  17.285  1.00  0.00    +0.305 HD
ATOM      8  H   UNL     1      50.737  49.742  21.809  1.00  0.00    +0.301 HD
ATOM      9  H   UNL     1      51.659  51.173  22.023  1.00  0.00    +0.301 HD
ENDROOT
BRANCH   1  10
ATOM     10  C   UNL     1      49.627  48.912  19.265  1.00  0.00    +0.246 C 
BRANCH  10  11
ATOM     11  C   UNL     1      48.584  48.781  18.158  1.00  0.00    +0.046 C 
BRANCH  11  12
ATOM     12  C   UNL     1      47.141  48.624  18.646  1.00  0.00    +0.001 C 
ATOM     13  C   UNL     1      46.107  49.160  17.667  1.00  0.00    +0.004 C 
ENDBRANCH  11  12
ENDBRANCH  10  11
ENDBRANCH   1  10
BRANCH   4  14
ATOM     14  C   UNL     1      51.172  53.395  20.033  1.00  0.00    +0.016 A 
ATOM     15  C   UNL     1      51.990  54.164  20.876  1.00  0.00    +0.055 A 
ATOM     16  C   UNL     1      49.884  53.868  19.729  1.00  0.00    +0.055 A 
ATOM     17  C   UNL     1      51.555  55.388  21.387  1.00  0.00    +0.123 A 
ATOM     18  C   UNL     1      49.442  55.089  20.241  1.00  0.00    +0.123 A 
ATOM     19  C   UNL     1      50.284  55.848  21.062  1.00  0.00    +0.092 A 
BRANCH  17  20
ATOM     20  O   UNL     1      52.472  56.020  22.174  1.00  0.00    -0.497 OA
ATOM     21  C   UNL     1      52.749  57.388  21.871  1.00  0.00    +0.278 C 
ENDBRANCH  17  20
BRANCH  18  22
ATOM     22  O   UNL     1      48.225  55.662  20.008  1.00  0.00    -0.497 OA
ATOM     23  C   UNL     1      48.049  57.035  20.333  1.00  0.00    +0.278 C 
ENDBRANCH  18  22
ENDBRANCH   4  14
TORSDOF 6
ENDMDL
MODEL 2
REMARK VINA RESULT:    -7.108      0.229      2.448
REMARK INTER + INTRA:         -10.093
REMARK INTER:                  -9.575
REMARK INTRA:                  -0.518
REMARK UNBOUND:                -0.492
REMARK SMILES CCCCN1C=[NH+][C@@H](c2cc(OC)cc(OC)c2)C1=[NH2+]
REMARK SMILES IDX 5 1 6 2 7 3 8 4 19 5 20 6 4 10 3 11 2 12 1 13 9 14 18 15
REMARK SMILES IDX 10 16 15 17 11 18 14 19 16 20 17 21 12 22 13 23
REMARK H PARENT 7 7 20 8 20 9
ROOT
ATOM      1  N   UNL     1      50.169  50.159  19.174  1.00  0.00    -0.200 N 
ATOM      2  C   UNL     1      50.153  50.811  18.017  1.00  0.00    +0.401 C 
ATOM      3  N   UNL     1      50.875  51.915  18.005  1.00  0.00    -0.262 N 
ATOM      4  C   UNL     1      51.512  52.059  19.325  1.00  0.00    +0.317 C 
ATOM      5  C   UNL     1      50.949  50.830  20.038  1.00  0.00    +0.300 C 
ATOM      6  N   UNL     1      51.234  50.558  21.306  1.00  0.00    -0.287 N 
ATOM      7  H   UNL     1      50.927  52.529  17.197  1.00  0.00    +0.305 HD
ATOM      8  H   UNL     1      50.858  49.751  21.796  1.00  0.00    +0.301 HD
ATOM      9  H   UNL     1      51.820  51.169  21.875  1.00  0.00    +0.301 HD
ENDROOT
BRANCH   1  10
ATOM     10  C   UNL     1      49.430  48.909  19.420  1.00  0.00    +0.246 C 
BRANCH  10  11
ATOM     11  C   UNL     1      48.543  48.568  18.226  1.00  0.00    +0.046 C 
BRANCH  11  12
ATOM     12  C   UNL     1      47.044  48.776  18.455  1.00  0.00    +0.001 C 
ATOM     13  C   UNL     1      46.376  49.620  17.379  1.00  0.00    +0.004 C 
ENDBRANCH  11  12
ENDBRANCH  10  11
ENDBRANCH   1  10
BRANCH   4  14
ATOM     14  C   UNL     1      51.121  53.376  19.933  1.00  0.00    +0.016 A 
ATOM     15  C   UNL     1      49.863  53.946  19.677  1.00  0.00    +0.055 A 
ATOM     16  C   UNL     1      52.013  54.063  20.775  1.00  0.00    +0.055 A 
ATOM     17  C   UNL     1      49.485  55.156  20.260  1.00  0.00    +0.123 A 
ATOM     18  C   UNL     1      51.641  55.277  21.357  1.00  0.00    +0.123 A 
ATOM     19  C   UNL     1      50.374  55.814  21.102  1.00  0.00    +0.092 A 
BRANCH  17  20
ATOM     20  O   UNL     1      48.227  55.566  19.925  1.00  0.00    -0.497 OA
ATOM     21  C   UNL     1      47.888  56.919  20.230  1.00  0.00    +0.278 C 
ENDBRANCH  17  20
BRANCH  18  22
ATOM     22  O   UNL     1      52.408  56.029  22.199  1.00  0.00    -0.497 OA
ATOM     23  C   UNL     1      52.608  57.402  21.888  1.00  0.00    +0.278 C 
ENDBRANCH  18  22
ENDBRANCH   4  14
TORSDOF 6
ENDMDL
MODEL 3
REMARK VINA RESULT:    -6.872      1.756      2.811
REMARK INTER + INTRA:          -9.775
REMARK INTER:                  -9.346
REMARK INTRA:                  -0.429
REMARK UNBOUND:                -0.492
REMARK SMILES CCCCN1C=[NH+][C@@H](c2cc(OC)cc(OC)c2)C1=[NH2+]
REMARK SMILES IDX 5 1 6 2 7 3 8 4 19 5 20 6 4 10 3 11 2 12 1 13 9 14 18 15
REMARK SMILES IDX 10 16 15 17 11 18 14 19 16 20 17 21 12 22 13 23
REMARK H PARENT 7 7 20 8 20 9
ROOT
ATOM      1  N   UNL     1      51.721  51.762  20.343  1.00  0.00    -0.200 N 
ATOM      2  C   UNL     1      52.010  51.857  21.636  1.00  0.00    +0.401 C 
ATOM      3  N   UNL     1      51.339  52.795  22.275  1.00  0.00    -0.262 N 
ATOM      4  C   UNL     1      50.430  53.444  21.314  1.00  0.00    +0.317 C 
ATOM      5  C   UNL     1      50.788  52.680  20.039  1.00  0.00    +0.300 C 
ATOM      6  N   UNL     1      50.223  52.955  18.870  1.00  0.00    -0.287 N 
ATOM      7  H   UNL     1      51.482  53.001  23.260  1.00  0.00    +0.305 HD
ATOM      8  H   UNL     1      50.459  52.463  18.012  1.00  0.00    +0.301 HD
ATOM      9  H   UNL     1      49.543  53.707  18.758  1.00  0.00    +0.301 HD
ENDROOT
BRANCH   1  10
ATOM     10  C   UNL     1      52.354  50.793  19.432  1.00  0.00    +0.246 C 
BRANCH  10  11
ATOM     11  C   UNL     1      52.085  49.365  19.898  1.00  0.00    +0.046 C 
BRANCH  11  12
ATOM     12  C   UNL     1      50.626  49.064  20.249  1.00  0.00    +0.001 C 
ATOM     13  C   UNL     1      49.693  49.095  19.048  1.00  0.00    +0.004 C 
ENDBRANCH  11  12
ENDBRANCH  10  11
ENDBRANCH   1  10
BRANCH   4  14
ATOM     14  C   UNL     1      50.713  54.918  21.267  1.00  0.00    +0.016 A 
ATOM     15  C   UNL     1      51.999  55.416  21.529  1.00  0.00    +0.055 A 
ATOM     16  C   UNL     1      49.688  55.829  20.956  1.00  0.00    +0.055 A 
ATOM     17  C   UNL     1      52.274  56.783  21.461  1.00  0.00    +0.123 A 
ATOM     18  C   UNL     1      49.956  57.198  20.891  1.00  0.00    +0.123 A 
ATOM     19  C   UNL     1      51.251  57.668  21.137  1.00  0.00    +0.092 A 
BRANCH  17  20
ATOM     20  O   UNL     1      53.573  57.104  21.726  1.00  0.00    -0.497 OA
ATOM     21  C   UNL     1      54.258  57.883  20.745  1.00  0.00    +0.278 C 
ENDBRANCH  17  20
BRANCH  18  22
ATOM     22  O   UNL     1      49.055  58.176  20.587  1.00  0.00    -0.497 OA
ATOM     23  C   UNL     1      47.678  57.828  20.512  1.00  0.00    +0.278 C 
ENDBRANCH  18  22
ENDBRANCH   4  14
TORSDOF 6
ENDMDL
MODEL 4
REMARK VINA RESULT:    -6.691      2.649      6.304
REMARK INTER + INTRA:          -9.531
REMARK INTER:                  -9.134
REMARK INTRA:                  -0.397
REMARK UNBOUND:                -0.492
REMARK SMILES CCCCN1C=[NH+][C@@H](c2cc(OC)cc(OC)c2)C1=[NH2+]
REMARK SMILES IDX 5 1 6 2 7 3 8 4 19 5 20 6 4 10 3 11 2 12 1 13 9 14 18 15
REMARK SMILES IDX 10 16 15 17 11 18 14 19 16 20 17 21 12 22 13 23
REMARK H PARENT 7 7 20 8 20 9
ROOT
ATOM      1  N   UNL     1      51.639  55.408  21.660  1.00  0.00    -0.200 N 
ATOM      2  C   UNL     1      51.448  54.437  22.546  1.00  0.00    +0.401 C 
ATOM      3  N   UNL     1      51.636  53.222  22.068  1.00  0.00    -0.262 N 
ATOM      4  C   UNL     1      52.038  53.341  20.656  1.00  0.00    +0.317 C 
ATOM      5  C   UNL     1      51.986  54.860  20.484  1.00  0.00    +0.300 C 
ATOM      6  N   UNL     1      52.250  55.447  19.323  1.00  0.00    -0.287 N 
ATOM      7  H   UNL     1      51.494  52.383  22.625  1.00  0.00    +0.305 HD
ATOM      8  H   UNL     1      52.209  56.454  19.191  1.00  0.00    +0.301 HD
ATOM      9  H   UNL     1      52.473  54.914  18.481  1.00  0.00    +0.301 HD
ENDROOT
BRANCH   1  10
ATOM     10  C   UNL     1      51.476  56.839  21.967  1.00  0.00    +0.246 C 
BRANCH  10  11
ATOM     11  C   UNL     1      50.001  57.228  21.943  1.00  0.00    +0.046 C 
BRANCH  11  12
ATOM     12  C   UNL     1      49.413  57.443  20.545  1.00  0.00    +0.001 C 
ATOM     13  C   UNL     1      48.274  56.490  20.212  1.00  0.00    +0.004 C 
ENDBRANCH  11  12
ENDBRANCH  10  11
ENDBRANCH   1  10
BRANCH   4  14
ATOM     14  C   UNL     1      51.078  52.575  19.791  1.00  0.00    +0.016 A 
ATOM     15  C   UNL     1      50.249  53.235  18.870  1.00  0.00    +0.055 A 
ATOM     16  C   UNL     1      50.995  51.175  19.890  1.00  0.00    +0.055 A 
ATOM     17  C   UNL     1      49.374  52.526  18.047  1.00  0.00    +0.123 A 
ATOM     18  C   UNL     1      50.118  50.461  19.071  1.00  0.00    +0.123 A 
ATOM     19  C   UNL     1      49.316  51.140  18.147  1.00  0.00    +0.092 A 
BRANCH  17  20
ATOM     20  O   UNL     1      48.651  53.311  17.196  1.00  0.00    -0.497 OA
ATOM     21  C   UNL     1      47.851  52.639  16.222  1.00  0.00    +0.278 C 
ENDBRANCH  17  20
BRANCH  18  22
ATOM     22  O   UNL     1      49.956  49.105  19.061  1.00  0.00    -0.497 OA
ATOM     23  C   UNL     1      48.875  48.559  18.317  1.00  0.00    +0.278 C 
ENDBRANCH  18  22
ENDBRANCH   4  14
TORSDOF 6
ENDMDL
MODEL 5
REMARK VINA RESULT:    -6.545      2.667      6.164
REMARK INTER + INTRA:          -9.334
REMARK INTER:                  -8.895
REMARK INTRA:                  -0.438
REMARK UNBOUND:                -0.492
REMARK SMILES CCCCN1C=[NH+][C@@H](c2cc(OC)cc(OC)c2)C1=[NH2+]
REMARK SMILES IDX 5 1 6 2 7 3 8 4 19 5 20 6 4 10 3 11 2 12 1 13 9 14 18 15
REMARK SMILES IDX 10 16 15 17 11 18 14 19 16 20 17 21 12 22 13 23
REMARK H PARENT 7 7 20 8 20 9
ROOT
ATOM      1  N   UNL     1      51.662  55.528  21.626  1.00  0.00    -0.200 N 
ATOM      2  C   UNL     1      51.463  54.533  22.484  1.00  0.00    +0.401 C 
ATOM      3  N   UNL     1      51.643  53.331  21.970  1.00  0.00    -0.262 N 
ATOM      4  C   UNL     1      52.047  53.489  20.563  1.00  0.00    +0.317 C 
ATOM      5  C   UNL     1      52.006  55.012  20.435  1.00  0.00    +0.300 C 
ATOM      6  N   UNL     1      52.276  55.631  19.292  1.00  0.00    -0.287 N 
ATOM      7  H   UNL     1      51.493  52.477  22.503  1.00  0.00    +0.305 HD
ATOM      8  H   UNL     1      52.243  56.641  19.189  1.00  0.00    +0.301 HD
ATOM      9  H   UNL     1      52.496  55.121  18.436  1.00  0.00    +0.301 HD
ENDROOT
BRANCH   1  10
ATOM     10  C   UNL     1      51.510  56.951  21.975  1.00  0.00    +0.246 C 
BRANCH  10  11
ATOM     11  C   UNL     1      50.033  57.326  22.066  1.00  0.00    +0.046 C 
BRANCH  11  12
ATOM     12  C   UNL     1      49.347  57.573  20.720  1.00  0.00    +0.001 C 
ATOM     13  C   UNL     1      48.470  56.417  20.263  1.00  0.00    +0.004 C 
ENDBRANCH  11  12
ENDBRANCH  10  11
ENDBRANCH   1  10
BRANCH   4  14
ATOM     14  C   UNL     1      51.082  52.756  19.675  1.00  0.00    +0.016 A 
ATOM     15  C   UNL     1      50.985  51.356  19.714  1.00  0.00    +0.055 A 
ATOM     16  C   UNL     1      50.255  53.465  18.786  1.00  0.00    +0.055 A 
ATOM     17  C   UNL     1      50.072  50.672  18.910  1.00  0.00    +0.123 A 
ATOM     18  C   UNL     1      49.344  52.785  17.976  1.00  0.00    +0.123 A 
ATOM     19  C   UNL     1      49.251  51.390  18.048  1.00  0.00    +0.092 A 
BRANCH  17  20
ATOM     20  O   UNL     1      50.088  49.317  19.077  1.00  0.00    -0.497 OA
ATOM     21  C   UNL     1      49.038  48.578  18.452  1.00  0.00    +0.278 C 
ENDBRANCH  17  20
BRANCH  18  22
ATOM     22  O   UNL     1      48.480  53.358  17.087  1.00  0.00    -0.497 OA
ATOM     23  C   UNL     1      47.769  52.511  16.193  1.00  0.00    +0.278 C 
ENDBRANCH  18  22
ENDBRANCH   4  14
TORSDOF 6
ENDMDL
