MODEL 1
REMARK VINA RESULT:    -6.229      0.000      0.000
REMARK INTER + INTRA:          -8.810
REMARK INTER:                  -8.778
REMARK INTRA:                  -0.032
REMARK UNBOUND:                -0.032
REMARK SMILES CCC(C)(C)NC(=O)C[NH+](C)CC(=O)NC(C)C
REMARK SMILES IDX 9 1 7 2 6 3 8 4 3 6 4 7 5 8 2 9 1 10 10 11 11 12 12 14 13 15
REMARK SMILES IDX 14 16 15 17 16 19 17 20 18 21
REMARK H PARENT 6 5 10 13 15 18
ROOT
ATOM      1  C   UNL     1      52.468  53.330  18.798  1.00  0.00    +0.363 C 
ENDROOT
BRANCH   1   2
ATOM      2  C   UNL     1      52.108  54.683  19.425  1.00  0.00    +0.275 C 
ATOM      3  N   UNL     1      51.990  54.682  20.795  1.00  0.00    -0.346 N 
ATOM      4  O   UNL     1      51.957  55.663  18.699  1.00  0.00    -0.268 OA
ATOM      5  H   UNL     1      51.940  53.791  21.276  1.00  0.00    +0.164 HD
BRANCH   3   6
ATOM      6  C   UNL     1      51.590  55.857  21.599  1.00  0.00    +0.034 C 
ATOM      7  C   UNL     1      52.574  57.022  21.376  1.00  0.00    +0.034 C 
ATOM      8  C   UNL     1      51.674  55.465  23.088  1.00  0.00    +0.034 C 
BRANCH   6   9
ATOM      9  C   UNL     1      50.155  56.330  21.246  1.00  0.00    +0.024 C 
ATOM     10  C   UNL     1      49.758  57.680  21.834  1.00  0.00    +0.006 C 
ENDBRANCH   6   9
ENDBRANCH   3   6
ENDBRANCH   1   2
BRANCH   1  11
ATOM     11  N   UNL     1      51.277  52.369  18.864  1.00  0.00    -0.322 N 
ATOM     12  C   UNL     1      50.032  52.938  18.267  1.00  0.00    +0.333 C 
ATOM     13  H   UNL     1      51.109  52.296  19.888  1.00  0.00    +0.348 HD
BRANCH  11  14
ATOM     14  C   UNL     1      51.593  50.962  18.394  1.00  0.00    +0.363 C 
BRANCH  14  15
ATOM     15  C   UNL     1      50.508  49.965  18.817  1.00  0.00    +0.275 C 
ATOM     16  O   UNL     1      50.296  49.752  20.009  1.00  0.00    -0.268 OA
ATOM     17  N   UNL     1      49.843  49.341  17.788  1.00  0.00    -0.349 N 
ATOM     18  H   UNL     1      49.916  49.704  16.844  1.00  0.00    +0.163 HD
BRANCH  17  19
ATOM     19  C   UNL     1      48.730  48.427  18.044  1.00  0.00    +0.076 C 
ATOM     20  C   UNL     1      47.412  49.196  18.113  1.00  0.00    +0.030 C 
ATOM     21  C   UNL     1      48.676  47.353  16.963  1.00  0.00    +0.030 C 
ENDBRANCH  17  19
ENDBRANCH  14  15
ENDBRANCH  11  14
ENDBRANCH   1  11
TORSDOF 7
ENDMDL
MODEL 2
REMARK VINA RESULT:    -6.160      2.029      2.467
REMARK INTER + INTRA:          -8.712
REMARK INTER:                  -8.455
REMARK INTRA:                  -0.257
REMARK UNBOUND:                -0.032
REMARK SMILES CCC(C)(C)NC(=O)C[NH+](C)CC(=O)NC(C)C
REMARK SMILES IDX 9 1 7 2 6 3 8 4 3 6 4 7 5 8 2 9 1 10 10 11 11 12 12 14 13 15
REMARK SMILES IDX 14 16 15 17 16 19 17 20 18 21
REMARK H PARENT 6 5 10 13 15 18
ROOT
ATOM      1  C   UNL     1      51.128  51.147  21.120  1.00  0.00    +0.363 C 
ENDROOT
BRANCH   1   2
ATOM      2  C   UNL     1      50.981  52.582  20.601  1.00  0.00    +0.275 C 
ATOM      3  N   UNL     1      51.380  53.566  21.474  1.00  0.00    -0.346 N 
ATOM      4  O   UNL     1      50.540  52.772  19.469  1.00  0.00    -0.268 OA
ATOM      5  H   UNL     1      51.541  53.317  22.443  1.00  0.00    +0.164 HD
BRANCH   3   6
ATOM      6  C   UNL     1      51.266  55.017  21.206  1.00  0.00    +0.034 C 
ATOM      7  C   UNL     1      52.302  55.451  20.149  1.00  0.00    +0.034 C 
ATOM      8  C   UNL     1      51.601  55.769  22.510  1.00  0.00    +0.034 C 
BRANCH   6   9
ATOM      9  C   UNL     1      49.846  55.398  20.712  1.00  0.00    +0.024 C 
ATOM     10  C   UNL     1      49.371  56.787  21.126  1.00  0.00    +0.006 C 
ENDBRANCH   6   9
ENDBRANCH   3   6
ENDBRANCH   1   2
BRANCH   1  11
ATOM     11  N   UNL     1      51.354  50.172  19.961  1.00  0.00    -0.322 N 
ATOM     12  C   UNL     1      52.765  49.695  19.863  1.00  0.00    +0.333 C 
ATOM     13  H   UNL     1      51.186  50.776  19.130  1.00  0.00    +0.348 HD
BRANCH  11  14
ATOM     14  C   UNL     1      50.325  49.060  19.880  1.00  0.00    +0.363 C 
BRANCH  14  15
ATOM     15  C   UNL     1      49.344  49.277  18.723  1.00  0.00    +0.275 C 
ATOM     16  O   UNL     1      48.168  48.939  18.838  1.00  0.00    -0.268 OA
ATOM     17  N   UNL     1      49.882  49.834  17.586  1.00  0.00    -0.349 N 
ATOM     18  H   UNL     1      50.794  50.276  17.622  1.00  0.00    +0.163 HD
BRANCH  17  19
ATOM     19  C   UNL     1      49.046  50.171  16.434  1.00  0.00    +0.076 C 
ATOM     20  C   UNL     1      48.649  51.644  16.475  1.00  0.00    +0.030 C 
ATOM     21  C   UNL     1      49.782  49.842  15.140  1.00  0.00    +0.030 C 
ENDBRANCH  17  19
ENDBRANCH  14  15
ENDBRANCH  11  14
ENDBRANCH   1  11
TORSDOF 7
ENDMDL
MODEL 3
REMARK VINA RESULT:    -6.073      1.678      7.248
REMARK INTER + INTRA:          -8.590
REMARK INTER:                  -8.343
REMARK INTRA:                  -0.246
REMARK UNBOUND:                -0.032
REMARK SMILES CCC(C)(C)NC(=O)C[NH+](C)CC(=O)NC(C)C
REMARK SMILES IDX 9 1 7 2 6 3 8 4 3 6 4 7 5 8 2 9 1 10 10 11 11 12 12 14 13 15
REMARK SMILES IDX 14 16 15 17 16 19 17 20 18 21
REMARK H PARENT 6 5 10 13 15 18
ROOT
ATOM      1  C   UNL     1      51.494  51.043  17.923  1.00  0.00    +0.363 C 
ENDROOT
BRANCH   1   2
ATOM      2  C   UNL     1      50.012  50.666  17.808  1.00  0.00    +0.275 C 
ATOM      3  N   UNL     1      49.765  49.363  17.446  1.00  0.00    -0.346 N 
ATOM      4  O   UNL     1      49.154  51.513  18.046  1.00  0.00    -0.268 OA
ATOM      5  H   UNL     1      50.531  48.807  17.085  1.00  0.00    +0.164 HD
BRANCH   3   6
ATOM      6  C   UNL     1      48.414  48.802  17.215  1.00  0.00    +0.034 C 
ATOM      7  C   UNL     1      47.597  48.812  18.523  1.00  0.00    +0.034 C 
ATOM      8  C   UNL     1      48.578  47.330  16.789  1.00  0.00    +0.034 C 
BRANCH   6   9
ATOM      9  C   UNL     1      47.643  49.597  16.129  1.00  0.00    +0.024 C 
ATOM     10  C   UNL     1      48.206  49.469  14.716  1.00  0.00    +0.006 C 
ENDBRANCH   6   9
ENDBRANCH   3   6
ENDBRANCH   1   2
BRANCH   1  11
ATOM     11  N   UNL     1      51.942  51.036  19.387  1.00  0.00    -0.322 N 
ATOM     12  C   UNL     1      52.711  49.812  19.759  1.00  0.00    +0.333 C 
ATOM     13  H   UNL     1      51.035  50.983  19.895  1.00  0.00    +0.348 HD
BRANCH  11  14
ATOM     14  C   UNL     1      52.595  52.329  19.839  1.00  0.00    +0.363 C 
BRANCH  14  15
ATOM     15  C   UNL     1      51.600  53.248  20.554  1.00  0.00    +0.275 C 
ATOM     16  O   UNL     1      50.542  52.796  20.987  1.00  0.00    -0.268 OA
ATOM     17  N   UNL     1      51.972  54.570  20.641  1.00  0.00    -0.349 N 
ATOM     18  H   UNL     1      52.931  54.839  20.456  1.00  0.00    +0.163 HD
BRANCH  17  19
ATOM     19  C   UNL     1      51.157  55.543  21.369  1.00  0.00    +0.076 C 
ATOM     20  C   UNL     1      51.672  55.712  22.796  1.00  0.00    +0.030 C 
ATOM     21  C   UNL     1      51.154  56.877  20.631  1.00  0.00    +0.030 C 
ENDBRANCH  17  19
ENDBRANCH  14  15
ENDBRANCH  11  14
ENDBRANCH   1  11
TORSDOF 7
ENDMDL
MODEL 4
REMARK VINA RESULT:    -5.641      1.786      7.311
REMARK INTER + INTRA:          -7.981
REMARK INTER:                  -8.138
REMARK INTRA:                   0.157
REMARK UNBOUND:                -0.032
REMARK SMILES CCC(C)(C)NC(=O)C[NH+](C)CC(=O)NC(C)C
REMARK SMILES IDX 9 1 7 2 6 3 8 4 3 6 4 7 5 8 2 9 1 10 10 11 11 12 12 14 13 15
REMARK SMILES IDX 14 16 15 17 16 19 17 20 18 21
REMARK H PARENT 6 5 10 13 15 18
ROOT
ATOM      1  C   UNL     1      50.114  52.683  18.570  1.00  0.00    +0.363 C 
ENDROOT
BRANCH   1   2
ATOM      2  C   UNL     1      49.814  51.314  17.947  1.00  0.00    +0.275 C 
ATOM      3  N   UNL     1      48.488  51.070  17.678  1.00  0.00    -0.346 N 
ATOM      4  O   UNL     1      50.740  50.539  17.719  1.00  0.00    -0.268 OA
ATOM      5  H   UNL     1      47.791  51.686  18.081  1.00  0.00    +0.164 HD
BRANCH   3   6
ATOM      6  C   UNL     1      47.967  49.794  17.138  1.00  0.00    +0.034 C 
ATOM      7  C   UNL     1      48.226  49.707  15.621  1.00  0.00    +0.034 C 
ATOM      8  C   UNL     1      46.439  49.780  17.343  1.00  0.00    +0.034 C 
BRANCH   6   9
ATOM      9  C   UNL     1      48.616  48.570  17.835  1.00  0.00    +0.024 C 
ATOM     10  C   UNL     1      48.627  47.288  17.008  1.00  0.00    +0.006 C 
ENDBRANCH   6   9
ENDBRANCH   3   6
ENDBRANCH   1   2
BRANCH   1  11
ATOM     11  N   UNL     1      51.290  52.588  19.545  1.00  0.00    -0.322 N 
ATOM     12  C   UNL     1      52.455  53.430  19.142  1.00  0.00    +0.333 C 
ATOM     13  H   UNL     1      51.588  51.597  19.435  1.00  0.00    +0.348 HD
BRANCH  11  14
ATOM     14  C   UNL     1      50.899  52.743  21.002  1.00  0.00    +0.363 C 
BRANCH  14  15
ATOM     15  C   UNL     1      51.134  54.172  21.504  1.00  0.00    +0.275 C 
ATOM     16  O   UNL     1      52.008  54.397  22.339  1.00  0.00    -0.268 OA
ATOM     17  N   UNL     1      50.298  55.130  20.979  1.00  0.00    -0.349 N 
ATOM     18  H   UNL     1      49.746  54.922  20.155  1.00  0.00    +0.163 HD
BRANCH  17  19
ATOM     19  C   UNL     1      50.463  56.546  21.307  1.00  0.00    +0.076 C 
ATOM     20  C   UNL     1      51.405  57.219  20.313  1.00  0.00    +0.030 C 
ATOM     21  C   UNL     1      49.104  57.239  21.323  1.00  0.00    +0.030 C 
ENDBRANCH  17  19
ENDBRANCH  14  15
ENDBRANCH  11  14
ENDBRANCH   1  11
TORSDOF 7
ENDMDL
MODEL 5
REMARK VINA RESULT:    -5.385      2.674      6.821
REMARK INTER + INTRA:          -7.620
REMARK INTER:                  -7.487
REMARK INTRA:                  -0.133
REMARK UNBOUND:                -0.032
REMARK SMILES CCC(C)(C)NC(=O)C[NH+](C)CC(=O)NC(C)C
REMARK SMILES IDX 9 1 7 2 6 3 8 4 3 6 4 7 5 8 2 9 1 10 10 11 11 12 12 14 13 15
REMARK SMILES IDX 14 16 15 17 16 19 17 20 18 21
REMARK H PARENT 6 5 10 13 15 18
ROOT
ATOM      1  C   UNL     1      51.459  50.523  18.467  1.00  0.00    +0.363 C 
ENDROOT
BRANCH   1   2
ATOM      2  C   UNL     1      50.129  49.772  18.326  1.00  0.00    +0.275 C 
ATOM      3  N   UNL     1      49.704  49.569  17.034  1.00  0.00    -0.346 N 
ATOM      4  O   UNL     1      49.539  49.395  19.337  1.00  0.00    -0.268 OA
ATOM      5  H   UNL     1      50.157  50.085  16.289  1.00  0.00    +0.164 HD
BRANCH   3   6
ATOM      6  C   UNL     1      48.422  48.925  16.669  1.00  0.00    +0.034 C 
ATOM      7  C   UNL     1      47.272  49.494  17.523  1.00  0.00    +0.034 C 
ATOM      8  C   UNL     1      48.535  47.423  16.996  1.00  0.00    +0.034 C 
BRANCH   6   9
ATOM      9  C   UNL     1      48.089  49.128  15.167  1.00  0.00    +0.024 C 
ATOM     10  C   UNL     1      46.812  48.442  14.693  1.00  0.00    +0.006 C 
ENDBRANCH   6   9
ENDBRANCH   3   6
ENDBRANCH   1   2
BRANCH   1  11
ATOM     11  N   UNL     1      51.460  51.389  19.729  1.00  0.00    -0.322 N 
ATOM     12  C   UNL     1      52.445  50.931  20.754  1.00  0.00    +0.333 C 
ATOM     13  H   UNL     1      50.515  51.206  20.123  1.00  0.00    +0.348 HD
BRANCH  11  14
ATOM     14  C   UNL     1      51.512  52.880  19.455  1.00  0.00    +0.363 C 
BRANCH  14  15
ATOM     15  C   UNL     1      50.114  53.468  19.239  1.00  0.00    +0.275 C 
ATOM     16  O   UNL     1      49.503  53.971  20.180  1.00  0.00    -0.268 OA
ATOM     17  N   UNL     1      49.617  53.363  17.961  1.00  0.00    -0.349 N 
ATOM     18  H   UNL     1      50.239  53.131  17.194  1.00  0.00    +0.163 HD
BRANCH  17  19
ATOM     19  C   UNL     1      48.330  53.953  17.593  1.00  0.00    +0.076 C 
ATOM     20  C   UNL     1      48.508  55.411  17.179  1.00  0.00    +0.030 C 
ATOM     21  C   UNL     1      47.686  53.144  16.471  1.00  0.00    +0.030 C 
ENDBRANCH  17  19
ENDBRANCH  14  15
ENDBRANCH  11  14
ENDBRANCH   1  11
TORSDOF 7
ENDMDL
