MODEL 1
REMARK VINA RESULT:    -7.066      0.000      0.000
REMARK INTER + INTRA:         -10.408
REMARK INTER:                  -9.750
REMARK INTRA:                  -0.658
REMARK UNBOUND:                -0.658
REMARK SMILES CCN(C[C@H]1CCOC1)C(=O)c1[nH]nc(C2CC2)c1N
REMARK SMILES IDX 10 1 11 2 3 3 2 4 1 5 4 6 5 7 6 8 9 9 7 10 8 11 12 12 19 13
REMARK SMILES IDX 13 14 15 15 14 16 20 18 16 21 17 22 18 23
REMARK H PARENT 13 17 20 19 20 20
ROOT
ATOM      1  C   UNL     1      51.570  54.444  21.775  1.00  0.00    +0.274 C 
ATOM      2  O   UNL     1      51.979  54.286  22.926  1.00  0.00    -0.267 OA
ENDROOT
BRANCH   1   3
ATOM      3  N   UNL     1      51.463  55.732  21.202  1.00  0.00    -0.337 N 
BRANCH   3   4
ATOM      4  C   UNL     1      52.648  56.188  20.465  1.00  0.00    +0.116 C 
ATOM      5  C   UNL     1      53.403  57.318  21.151  1.00  0.00    +0.027 C 
ENDBRANCH   3   4
BRANCH   3   6
ATOM      6  C   UNL     1      50.581  56.751  21.803  1.00  0.00    +0.125 C 
BRANCH   6   7
ATOM      7  C   UNL     1      49.174  56.904  21.223  1.00  0.00    +0.037 C 
ATOM      8  C   UNL     1      48.493  58.243  21.424  1.00  0.00    +0.036 C 
ATOM      9  C   UNL     1      49.012  56.681  19.733  1.00  0.00    +0.165 C 
ATOM     10  C   UNL     1      47.343  58.151  20.442  1.00  0.00    +0.160 C 
ATOM     11  O   UNL     1      47.781  57.317  19.359  1.00  0.00    -0.381 OA
ENDBRANCH   6   7
ENDBRANCH   3   6
ENDBRANCH   1   3
BRANCH   1  12
ATOM     12  C   UNL     1      51.229  53.315  20.949  1.00  0.00    +0.146 A 
ATOM     13  C   UNL     1      51.508  51.976  21.102  1.00  0.00    +0.087 A 
ATOM     14  N   UNL     1      50.608  53.401  19.730  1.00  0.00    -0.271 N 
ATOM     15  C   UNL     1      50.947  51.344  19.972  1.00  0.00    +0.089 A 
ATOM     16  N   UNL     1      50.370  52.216  19.141  1.00  0.00    -0.177 NA
ATOM     17  H   UNL     1      50.315  54.243  19.248  1.00  0.00    +0.190 HD
BRANCH  13  18
ATOM     18  N   UNL     1      52.169  51.418  22.137  1.00  0.00    -0.395 N 
ATOM     19  H   UNL     1      53.081  51.804  22.384  1.00  0.00    +0.156 HD
ATOM     20  H   UNL     1      52.145  50.408  22.253  1.00  0.00    +0.156 HD
ENDBRANCH  13  18
BRANCH  15  21
ATOM     21  C   UNL     1      50.968  49.814  19.713  1.00  0.00    +0.042 C 
ATOM     22  C   UNL     1      50.462  48.870  20.775  1.00  0.00    +0.011 C 
ATOM     23  C   UNL     1      49.660  49.086  19.524  1.00  0.00    +0.011 C 
ENDBRANCH  15  21
ENDBRANCH   1  12
TORSDOF 7
ENDMDL
MODEL 2
REMARK VINA RESULT:    -6.855      4.371      7.690
REMARK INTER + INTRA:         -10.118
REMARK INTER:                  -9.265
REMARK INTRA:                  -0.852
REMARK UNBOUND:                -0.658
REMARK SMILES CCN(C[C@H]1CCOC1)C(=O)c1[nH]nc(C2CC2)c1N
REMARK SMILES IDX 10 1 11 2 3 3 2 4 1 5 4 6 5 7 6 8 9 9 7 10 8 11 12 12 19 13
REMARK SMILES IDX 13 14 15 15 14 16 20 18 16 21 17 22 18 23
REMARK H PARENT 13 17 20 19 20 20
ROOT
ATOM      1  C   UNL     1      49.538  49.971  16.488  1.00  0.00    +0.274 C 
ATOM      2  O   UNL     1      50.302  50.071  15.528  1.00  0.00    -0.267 OA
ENDROOT
BRANCH   1   3
ATOM      3  N   UNL     1      48.271  49.357  16.360  1.00  0.00    -0.337 N 
BRANCH   3   4
ATOM      4  C   UNL     1      48.155  48.385  15.266  1.00  0.00    +0.116 C 
ATOM      5  C   UNL     1      47.126  48.765  14.210  1.00  0.00    +0.027 C 
ENDBRANCH   3   4
BRANCH   3   6
ATOM      6  C   UNL     1      47.049  50.056  16.802  1.00  0.00    +0.125 C 
BRANCH   6   7
ATOM      7  C   UNL     1      46.137  49.333  17.797  1.00  0.00    +0.037 C 
ATOM      8  C   UNL     1      44.968  48.564  17.218  1.00  0.00    +0.036 C 
ATOM      9  C   UNL     1      46.781  48.306  18.705  1.00  0.00    +0.165 C 
ATOM     10  C   UNL     1      44.543  47.718  18.401  1.00  0.00    +0.160 C 
ATOM     11  O   UNL     1      45.721  47.463  19.180  1.00  0.00    -0.381 OA
ENDBRANCH   6   7
ENDBRANCH   3   6
ENDBRANCH   1   3
BRANCH   1  12
ATOM     12  C   UNL     1      49.926  50.435  17.794  1.00  0.00    +0.146 A 
ATOM     13  C   UNL     1      49.991  51.710  18.309  1.00  0.00    +0.087 A 
ATOM     14  N   UNL     1      50.427  49.635  18.789  1.00  0.00    -0.271 N 
ATOM     15  C   UNL     1      50.463  51.557  19.630  1.00  0.00    +0.089 A 
ATOM     16  N   UNL     1      50.706  50.279  19.935  1.00  0.00    -0.177 NA
ATOM     17  H   UNL     1      50.597  48.638  18.746  1.00  0.00    +0.190 HD
BRANCH  13  18
ATOM     18  N   UNL     1      49.653  52.844  17.662  1.00  0.00    -0.395 N 
ATOM     19  H   UNL     1      49.653  53.715  18.195  1.00  0.00    +0.156 HD
ATOM     20  H   UNL     1      48.898  52.821  16.982  1.00  0.00    +0.156 HD
ENDBRANCH  13  18
BRANCH  15  21
ATOM     21  C   UNL     1      50.665  52.721  20.637  1.00  0.00    +0.042 C 
ATOM     22  C   UNL     1      51.581  52.536  21.820  1.00  0.00    +0.011 C 
ATOM     23  C   UNL     1      51.998  53.425  20.685  1.00  0.00    +0.011 C 
ENDBRANCH  15  21
ENDBRANCH   1  12
TORSDOF 7
ENDMDL
MODEL 3
REMARK VINA RESULT:    -6.761      2.733      6.443
REMARK INTER + INTRA:          -9.988
REMARK INTER:                  -9.144
REMARK INTRA:                  -0.844
REMARK UNBOUND:                -0.658
REMARK SMILES CCN(C[C@H]1CCOC1)C(=O)c1[nH]nc(C2CC2)c1N
REMARK SMILES IDX 10 1 11 2 3 3 2 4 1 5 4 6 5 7 6 8 9 9 7 10 8 11 12 12 19 13
REMARK SMILES IDX 13 14 15 15 14 16 20 18 16 21 17 22 18 23
REMARK H PARENT 13 17 20 19 20 20
ROOT
ATOM      1  C   UNL     1      51.749  53.196  18.877  1.00  0.00    +0.274 C 
ATOM      2  O   UNL     1      52.812  53.499  18.334  1.00  0.00    -0.267 OA
ENDROOT
BRANCH   1   3
ATOM      3  N   UNL     1      51.434  51.851  19.179  1.00  0.00    -0.337 N 
BRANCH   3   4
ATOM      4  C   UNL     1      52.276  51.228  20.206  1.00  0.00    +0.116 C 
ATOM      5  C   UNL     1      52.799  49.851  19.822  1.00  0.00    +0.027 C 
ENDBRANCH   3   4
BRANCH   3   6
ATOM      6  C   UNL     1      50.812  50.979  18.164  1.00  0.00    +0.125 C 
BRANCH   6   7
ATOM      7  C   UNL     1      49.380  50.504  18.416  1.00  0.00    +0.037 C 
ATOM      8  C   UNL     1      48.402  50.640  17.267  1.00  0.00    +0.036 C 
ATOM      9  C   UNL     1      49.193  49.059  18.830  1.00  0.00    +0.165 C 
ATOM     10  C   UNL     1      47.256  49.767  17.737  1.00  0.00    +0.160 C 
ATOM     11  O   UNL     1      47.824  48.731  18.552  1.00  0.00    -0.381 OA
ENDBRANCH   6   7
ENDBRANCH   3   6
ENDBRANCH   1   3
BRANCH   1  12
ATOM     12  C   UNL     1      50.804  54.208  19.270  1.00  0.00    +0.146 A 
ATOM     13  C   UNL     1      50.992  55.532  19.597  1.00  0.00    +0.087 A 
ATOM     14  N   UNL     1      49.471  53.983  19.496  1.00  0.00    -0.271 N 
ATOM     15  C   UNL     1      49.711  56.023  19.925  1.00  0.00    +0.089 A 
ATOM     16  N   UNL     1      48.770  55.079  19.838  1.00  0.00    -0.177 NA
ATOM     17  H   UNL     1      48.977  53.101  19.429  1.00  0.00    +0.190 HD
BRANCH  13  18
ATOM     18  N   UNL     1      52.168  56.192  19.583  1.00  0.00    -0.395 N 
ATOM     19  H   UNL     1      52.915  55.823  18.993  1.00  0.00    +0.156 HD
ATOM     20  H   UNL     1      52.532  56.576  20.451  1.00  0.00    +0.156 HD
ENDBRANCH  13  18
BRANCH  15  21
ATOM     21  C   UNL     1      49.402  57.491  20.324  1.00  0.00    +0.042 C 
ATOM     22  C   UNL     1      48.118  57.816  21.044  1.00  0.00    +0.011 C 
ATOM     23  C   UNL     1      49.423  57.873  21.784  1.00  0.00    +0.011 C 
ENDBRANCH  15  21
ENDBRANCH   1  12
TORSDOF 7
ENDMDL
MODEL 4
REMARK VINA RESULT:    -6.681      2.511      3.641
REMARK INTER + INTRA:          -9.878
REMARK INTER:                  -9.431
REMARK INTRA:                  -0.446
REMARK UNBOUND:                -0.658
REMARK SMILES CCN(C[C@H]1CCOC1)C(=O)c1[nH]nc(C2CC2)c1N
REMARK SMILES IDX 10 1 11 2 3 3 2 4 1 5 4 6 5 7 6 8 9 9 7 10 8 11 12 12 19 13
REMARK SMILES IDX 13 14 15 15 14 16 20 18 16 21 17 22 18 23
REMARK H PARENT 13 17 20 19 20 20
ROOT
ATOM      1  C   UNL     1      52.008  53.135  18.786  1.00  0.00    +0.274 C 
ATOM      2  O   UNL     1      53.022  53.102  18.088  1.00  0.00    -0.267 OA
ENDROOT
BRANCH   1   3
ATOM      3  N   UNL     1      51.844  54.106  19.802  1.00  0.00    -0.337 N 
BRANCH   3   4
ATOM      4  C   UNL     1      50.919  53.734  20.878  1.00  0.00    +0.116 C 
ATOM      5  C   UNL     1      51.606  53.176  22.117  1.00  0.00    +0.027 C 
ENDBRANCH   3   4
BRANCH   3   6
ATOM      6  C   UNL     1      52.031  55.540  19.508  1.00  0.00    +0.125 C 
BRANCH   6   7
ATOM      7  C   UNL     1      52.488  56.446  20.653  1.00  0.00    +0.037 C 
ATOM      8  C   UNL     1      53.807  57.168  20.469  1.00  0.00    +0.036 C 
ATOM      9  C   UNL     1      51.558  57.571  21.058  1.00  0.00    +0.165 C 
ATOM     10  C   UNL     1      53.745  58.204  21.573  1.00  0.00    +0.160 C 
ATOM     11  O   UNL     1      52.360  58.524  21.772  1.00  0.00    -0.381 OA
ENDBRANCH   6   7
ENDBRANCH   3   6
ENDBRANCH   1   3
BRANCH   1  12
ATOM     12  C   UNL     1      50.924  52.214  18.562  1.00  0.00    +0.146 A 
ATOM     13  C   UNL     1      50.731  50.930  19.017  1.00  0.00    +0.087 A 
ATOM     14  N   UNL     1      49.870  52.442  17.715  1.00  0.00    -0.271 N 
ATOM     15  C   UNL     1      49.507  50.512  18.454  1.00  0.00    +0.089 A 
ATOM     16  N   UNL     1      48.963  51.451  17.674  1.00  0.00    -0.177 NA
ATOM     17  H   UNL     1      49.711  53.261  17.140  1.00  0.00    +0.190 HD
BRANCH  13  18
ATOM     18  N   UNL     1      51.555  50.249  19.839  1.00  0.00    -0.395 N 
ATOM     19  H   UNL     1      51.962  50.751  20.630  1.00  0.00    +0.156 HD
ATOM     20  H   UNL     1      52.210  49.580  19.443  1.00  0.00    +0.156 HD
ENDBRANCH  13  18
BRANCH  15  21
ATOM     21  C   UNL     1      48.840  49.134  18.711  1.00  0.00    +0.042 C 
ATOM     22  C   UNL     1      47.455  48.863  18.179  1.00  0.00    +0.011 C 
ATOM     23  C   UNL     1      48.641  48.189  17.552  1.00  0.00    +0.011 C 
ENDBRANCH  15  21
ENDBRANCH   1  12
TORSDOF 7
ENDMDL
MODEL 5
REMARK VINA RESULT:    -6.647      1.887      2.362
REMARK INTER + INTRA:          -9.830
REMARK INTER:                  -9.233
REMARK INTRA:                  -0.597
REMARK UNBOUND:                -0.658
REMARK SMILES CCN(C[C@H]1CCOC1)C(=O)c1[nH]nc(C2CC2)c1N
REMARK SMILES IDX 10 1 11 2 3 3 2 4 1 5 4 6 5 7 6 8 9 9 7 10 8 11 12 12 19 13
REMARK SMILES IDX 13 14 15 15 14 16 20 18 16 21 17 22 18 23
REMARK H PARENT 13 17 20 19 20 20
ROOT
ATOM      1  C   UNL     1      51.598  53.569  18.747  1.00  0.00    +0.274 C 
ATOM      2  O   UNL     1      52.788  53.429  18.463  1.00  0.00    -0.267 OA
ENDROOT
BRANCH   1   3
ATOM      3  N   UNL     1      51.102  54.791  19.258  1.00  0.00    -0.337 N 
BRANCH   3   4
ATOM      4  C   UNL     1      52.037  55.920  19.196  1.00  0.00    +0.116 C 
ATOM      5  C   UNL     1      52.634  56.299  20.545  1.00  0.00    +0.027 C 
ENDBRANCH   3   4
BRANCH   3   6
ATOM      6  C   UNL     1      50.066  54.800  20.309  1.00  0.00    +0.125 C 
BRANCH   6   7
ATOM      7  C   UNL     1      48.877  55.745  20.127  1.00  0.00    +0.037 C 
ATOM      8  C   UNL     1      48.841  56.978  21.006  1.00  0.00    +0.036 C 
ATOM      9  C   UNL     1      48.662  56.328  18.745  1.00  0.00    +0.165 C 
ATOM     10  C   UNL     1      47.785  57.816  20.315  1.00  0.00    +0.160 C 
ATOM     11  O   UNL     1      47.837  57.490  18.918  1.00  0.00    -0.381 OA
ENDBRANCH   6   7
ENDBRANCH   3   6
ENDBRANCH   1   3
BRANCH   1  12
ATOM     12  C   UNL     1      50.654  52.505  18.526  1.00  0.00    +0.146 A 
ATOM     13  C   UNL     1      50.564  51.254  19.093  1.00  0.00    +0.087 A 
ATOM     14  N   UNL     1      49.671  52.522  17.571  1.00  0.00    -0.271 N 
ATOM     15  C   UNL     1      49.457  50.639  18.471  1.00  0.00    +0.089 A 
ATOM     16  N   UNL     1      48.891  51.427  17.553  1.00  0.00    -0.177 NA
ATOM     17  H   UNL     1      49.478  53.257  16.901  1.00  0.00    +0.190 HD
BRANCH  13  18
ATOM     18  N   UNL     1      51.374  50.759  20.052  1.00  0.00    -0.395 N 
ATOM     19  H   UNL     1      52.161  50.180  19.758  1.00  0.00    +0.156 HD
ATOM     20  H   UNL     1      50.966  50.425  20.921  1.00  0.00    +0.156 HD
ENDBRANCH  13  18
BRANCH  15  21
ATOM     21  C   UNL     1      48.929  49.219  18.811  1.00  0.00    +0.042 C 
ATOM     22  C   UNL     1      47.527  48.829  18.414  1.00  0.00    +0.011 C 
ATOM     23  C   UNL     1      48.701  48.235  17.690  1.00  0.00    +0.011 C 
ENDBRANCH  15  21
ENDBRANCH   1  12
TORSDOF 7
ENDMDL
