MODEL 1
REMARK VINA RESULT:    -6.764      0.000      0.000
REMARK INTER + INTRA:          -9.262
REMARK INTER:                  -8.741
REMARK INTRA:                  -0.521
REMARK UNBOUND:                -0.521
REMARK SMILES CO[C@@H]1CCC[C@H]1NC(=O)C[NH2+]C1CCCC1
REMARK SMILES IDX 8 1 9 2 10 3 7 5 3 6 4 7 5 8 6 9 2 10 1 11 11 12 12 13 13 16
REMARK SMILES IDX 14 17 17 18 15 19 16 20
REMARK H PARENT 8 4 12 14 12 15
ROOT
ATOM      1  N   UNL     1      50.509  52.928  19.101  1.00  0.00    -0.346 N 
ATOM      2  C   UNL     1      51.619  53.701  18.888  1.00  0.00    +0.275 C 
ATOM      3  O   UNL     1      52.624  53.341  18.282  1.00  0.00    -0.268 OA
ATOM      4  H   UNL     1      49.790  53.240  19.742  1.00  0.00    +0.164 HD
ENDROOT
BRANCH   1   5
ATOM      5  C   UNL     1      50.530  51.503  18.790  1.00  0.00    +0.111 C 
ATOM      6  C   UNL     1      50.577  50.613  20.049  1.00  0.00    +0.140 C 
ATOM      7  C   UNL     1      50.038  49.261  19.569  1.00  0.00    +0.034 C 
ATOM      8  C   UNL     1      49.341  49.520  18.231  1.00  0.00    +0.005 C 
ATOM      9  C   UNL     1      49.247  51.034  18.121  1.00  0.00    +0.028 C 
BRANCH   6  10
ATOM     10  O   UNL     1      51.897  50.543  20.558  1.00  0.00    -0.379 OA
ATOM     11  C   UNL     1      52.802  49.871  19.702  1.00  0.00    +0.195 C 
ENDBRANCH   6  10
ENDBRANCH   1   5
BRANCH   2  12
ATOM     12  C   UNL     1      51.558  55.129  19.429  1.00  0.00    +0.362 C 
BRANCH  12  13
ATOM     13  N   UNL     1      50.388  55.276  20.379  1.00  0.00    -0.336 N 
ATOM     14  H   UNL     1      50.808  55.185  21.321  1.00  0.00    +0.346 HD
ATOM     15  H   UNL     1      49.728  54.498  20.273  1.00  0.00    +0.346 HD
BRANCH  13  16
ATOM     16  C   UNL     1      49.694  56.591  20.349  1.00  0.00    +0.182 C 
ATOM     17  C   UNL     1      49.841  57.300  21.690  1.00  0.00    +0.065 C 
ATOM     18  C   UNL     1      48.190  56.435  20.213  1.00  0.00    +0.065 C 
ATOM     19  C   UNL     1      48.682  58.291  21.719  1.00  0.00    +0.006 C 
ATOM     20  C   UNL     1      47.660  57.782  20.699  1.00  0.00    +0.006 C 
ENDBRANCH  13  16
ENDBRANCH  12  13
ENDBRANCH   2  12
TORSDOF 5
ENDMDL
MODEL 2
REMARK VINA RESULT:    -6.453      1.856      6.190
REMARK INTER + INTRA:          -8.860
REMARK INTER:                  -8.284
REMARK INTRA:                  -0.576
REMARK UNBOUND:                -0.521
REMARK SMILES CO[C@@H]1CCC[C@H]1NC(=O)C[NH2+]C1CCCC1
REMARK SMILES IDX 8 1 9 2 10 3 7 5 3 6 4 7 5 8 6 9 2 10 1 11 11 12 12 13 13 16
REMARK SMILES IDX 14 17 17 18 15 19 16 20
REMARK H PARENT 8 4 12 14 12 15
ROOT
ATOM      1  N   UNL     1      49.987  54.304  19.264  1.00  0.00    -0.346 N 
ATOM      2  C   UNL     1      50.447  53.046  19.549  1.00  0.00    +0.275 C 
ATOM      3  O   UNL     1      50.496  52.551  20.671  1.00  0.00    -0.268 OA
ATOM      4  H   UNL     1      50.125  54.697  18.341  1.00  0.00    +0.164 HD
ENDROOT
BRANCH   1   5
ATOM      5  C   UNL     1      49.707  55.250  20.338  1.00  0.00    +0.111 C 
ATOM      6  C   UNL     1      50.829  56.290  20.532  1.00  0.00    +0.140 C 
ATOM      7  C   UNL     1      50.137  57.455  21.246  1.00  0.00    +0.034 C 
ATOM      8  C   UNL     1      48.632  57.240  21.074  1.00  0.00    +0.005 C 
ATOM      9  C   UNL     1      48.507  56.135  20.037  1.00  0.00    +0.028 C 
BRANCH   6  10
ATOM     10  O   UNL     1      51.899  55.732  21.273  1.00  0.00    -0.379 OA
ATOM     11  C   UNL     1      51.620  55.583  22.652  1.00  0.00    +0.195 C 
ENDBRANCH   6  10
ENDBRANCH   1   5
BRANCH   2  12
ATOM     12  C   UNL     1      50.896  52.206  18.353  1.00  0.00    +0.362 C 
BRANCH  12  13
ATOM     13  N   UNL     1      49.743  52.016  17.389  1.00  0.00    -0.336 N 
ATOM     14  H   UNL     1      50.143  51.452  16.618  1.00  0.00    +0.346 HD
ATOM     15  H   UNL     1      49.453  52.912  16.981  1.00  0.00    +0.346 HD
BRANCH  13  16
ATOM     16  C   UNL     1      48.581  51.253  17.916  1.00  0.00    +0.182 C 
ATOM     17  C   UNL     1      49.013  49.855  18.341  1.00  0.00    +0.065 C 
ATOM     18  C   UNL     1      47.550  50.973  16.837  1.00  0.00    +0.065 C 
ATOM     19  C   UNL     1      47.724  49.040  18.315  1.00  0.00    +0.006 C 
ATOM     20  C   UNL     1      46.750  49.810  17.419  1.00  0.00    +0.006 C 
ENDBRANCH  13  16
ENDBRANCH  12  13
ENDBRANCH   2  12
TORSDOF 5
ENDMDL
MODEL 3
REMARK VINA RESULT:    -6.428      1.820      6.484
REMARK INTER + INTRA:          -8.828
REMARK INTER:                  -8.444
REMARK INTRA:                  -0.384
REMARK UNBOUND:                -0.521
REMARK SMILES CO[C@@H]1CCC[C@H]1NC(=O)C[NH2+]C1CCCC1
REMARK SMILES IDX 8 1 9 2 10 3 7 5 3 6 4 7 5 8 6 9 2 10 1 11 11 12 12 13 13 16
REMARK SMILES IDX 14 17 17 18 15 19 16 20
REMARK H PARENT 8 4 12 14 12 15
ROOT
ATOM      1  N   UNL     1      50.002  55.195  19.676  1.00  0.00    -0.346 N 
ATOM      2  C   UNL     1      50.455  53.965  20.072  1.00  0.00    +0.275 C 
ATOM      3  O   UNL     1      50.136  53.398  21.113  1.00  0.00    -0.268 OA
ATOM      4  H   UNL     1      50.430  55.662  18.886  1.00  0.00    +0.164 HD
ENDROOT
BRANCH   1   5
ATOM      5  C   UNL     1      49.243  56.034  20.596  1.00  0.00    +0.111 C 
ATOM      6  C   UNL     1      50.102  57.130  21.259  1.00  0.00    +0.140 C 
ATOM      7  C   UNL     1      49.084  58.188  21.696  1.00  0.00    +0.034 C 
ATOM      8  C   UNL     1      47.789  57.885  20.939  1.00  0.00    +0.005 C 
ATOM      9  C   UNL     1      48.176  56.857  19.888  1.00  0.00    +0.028 C 
BRANCH   6  10
ATOM     10  O   UNL     1      50.849  56.590  22.334  1.00  0.00    -0.379 OA
ATOM     11  C   UNL     1      52.249  56.640  22.135  1.00  0.00    +0.195 C 
ENDBRANCH   6  10
ENDBRANCH   1   5
BRANCH   2  12
ATOM     12  C   UNL     1      51.403  53.253  19.107  1.00  0.00    +0.362 C 
BRANCH  12  13
ATOM     13  N   UNL     1      50.614  52.575  18.007  1.00  0.00    -0.336 N 
ATOM     14  H   UNL     1      51.145  52.784  17.142  1.00  0.00    +0.346 HD
ATOM     15  H   UNL     1      49.690  53.008  17.897  1.00  0.00    +0.346 HD
BRANCH  13  16
ATOM     16  C   UNL     1      50.518  51.095  18.100  1.00  0.00    +0.182 C 
ATOM     17  C   UNL     1      49.064  50.650  18.008  1.00  0.00    +0.065 C 
ATOM     18  C   UNL     1      50.940  50.584  19.467  1.00  0.00    +0.065 C 
ATOM     19  C   UNL     1      49.052  49.269  18.655  1.00  0.00    +0.006 C 
ATOM     20  C   UNL     1      50.311  49.194  19.523  1.00  0.00    +0.006 C 
ENDBRANCH  13  16
ENDBRANCH  12  13
ENDBRANCH   2  12
TORSDOF 5
ENDMDL
MODEL 4
REMARK VINA RESULT:    -6.140      1.722      2.191
REMARK INTER + INTRA:          -8.456
REMARK INTER:                  -7.998
REMARK INTRA:                  -0.458
REMARK UNBOUND:                -0.521
REMARK SMILES CO[C@@H]1CCC[C@H]1NC(=O)C[NH2+]C1CCCC1
REMARK SMILES IDX 8 1 9 2 10 3 7 5 3 6 4 7 5 8 6 9 2 10 1 11 11 12 12 13 13 16
REMARK SMILES IDX 14 17 17 18 15 19 16 20
REMARK H PARENT 8 4 12 14 12 15
ROOT
ATOM      1  N   UNL     1      50.703  52.195  18.159  1.00  0.00    -0.346 N 
ATOM      2  C   UNL     1      52.060  52.098  18.316  1.00  0.00    +0.275 C 
ATOM      3  O   UNL     1      52.752  51.170  17.908  1.00  0.00    -0.268 OA
ATOM      4  H   UNL     1      50.185  52.908  18.658  1.00  0.00    +0.164 HD
ENDROOT
BRANCH   1   5
ATOM      5  C   UNL     1      49.934  51.061  17.660  1.00  0.00    +0.111 C 
ATOM      6  C   UNL     1      49.439  50.128  18.785  1.00  0.00    +0.140 C 
ATOM      7  C   UNL     1      48.251  49.390  18.160  1.00  0.00    +0.034 C 
ATOM      8  C   UNL     1      47.857  50.179  16.909  1.00  0.00    +0.005 C 
ATOM      9  C   UNL     1      48.628  51.486  17.006  1.00  0.00    +0.028 C 
BRANCH   6  10
ATOM     10  O   UNL     1      50.479  49.265  19.207  1.00  0.00    -0.379 OA
ATOM     11  C   UNL     1      50.495  49.034  20.602  1.00  0.00    +0.195 C 
ENDBRANCH   6  10
ENDBRANCH   1   5
BRANCH   2  12
ATOM     12  C   UNL     1      52.741  53.267  19.027  1.00  0.00    +0.362 C 
BRANCH  12  13
ATOM     13  N   UNL     1      52.021  53.578  20.323  1.00  0.00    -0.336 N 
ATOM     14  H   UNL     1      52.723  53.391  21.060  1.00  0.00    +0.346 HD
ATOM     15  H   UNL     1      51.246  52.924  20.480  1.00  0.00    +0.346 HD
BRANCH  13  16
ATOM     16  C   UNL     1      51.589  54.990  20.497  1.00  0.00    +0.182 C 
ATOM     17  C   UNL     1      51.810  55.439  21.936  1.00  0.00    +0.065 C 
ATOM     18  C   UNL     1      50.089  55.150  20.322  1.00  0.00    +0.065 C 
ATOM     19  C   UNL     1      50.859  56.618  22.112  1.00  0.00    +0.006 C 
ATOM     20  C   UNL     1      49.802  56.481  21.013  1.00  0.00    +0.006 C 
ENDBRANCH  13  16
ENDBRANCH  12  13
ENDBRANCH   2  12
TORSDOF 5
ENDMDL
MODEL 5
REMARK VINA RESULT:    -6.045      2.108      2.936
REMARK INTER + INTRA:          -8.333
REMARK INTER:                  -7.849
REMARK INTRA:                  -0.484
REMARK UNBOUND:                -0.521
REMARK SMILES CO[C@@H]1CCC[C@H]1NC(=O)C[NH2+]C1CCCC1
REMARK SMILES IDX 8 1 9 2 10 3 7 5 3 6 4 7 5 8 6 9 2 10 1 11 11 12 12 13 13 16
REMARK SMILES IDX 14 17 17 18 15 19 16 20
REMARK H PARENT 8 4 12 14 12 15
ROOT
ATOM      1  N   UNL     1      48.747  51.500  17.969  1.00  0.00    -0.346 N 
ATOM      2  C   UNL     1      50.083  51.735  17.779  1.00  0.00    +0.275 C 
ATOM      3  O   UNL     1      50.840  51.016  17.135  1.00  0.00    -0.268 OA
ATOM      4  H   UNL     1      48.226  52.052  18.640  1.00  0.00    +0.164 HD
ENDROOT
BRANCH   1   5
ATOM      5  C   UNL     1      48.157  50.225  17.577  1.00  0.00    +0.111 C 
ATOM      6  C   UNL     1      48.174  49.181  18.711  1.00  0.00    +0.140 C 
ATOM      7  C   UNL     1      47.068  48.193  18.323  1.00  0.00    +0.034 C 
ATOM      8  C   UNL     1      46.216  48.888  17.260  1.00  0.00    +0.005 C 
ATOM      9  C   UNL     1      46.670  50.339  17.275  1.00  0.00    +0.028 C 
BRANCH   6  10
ATOM     10  O   UNL     1      49.452  48.582  18.816  1.00  0.00    -0.379 OA
ATOM     11  C   UNL     1      50.143  48.919  20.004  1.00  0.00    +0.195 C 
ENDBRANCH   6  10
ENDBRANCH   1   5
BRANCH   2  12
ATOM     12  C   UNL     1      50.636  53.016  18.401  1.00  0.00    +0.362 C 
BRANCH  12  13
ATOM     13  N   UNL     1      50.542  52.945  19.911  1.00  0.00    -0.336 N 
ATOM     14  H   UNL     1      51.525  52.981  20.233  1.00  0.00    +0.346 HD
ATOM     15  H   UNL     1      50.165  52.039  20.214  1.00  0.00    +0.346 HD
BRANCH  13  16
ATOM     16  C   UNL     1      49.838  54.078  20.567  1.00  0.00    +0.182 C 
ATOM     17  C   UNL     1      48.838  54.710  19.606  1.00  0.00    +0.065 C 
ATOM     18  C   UNL     1      50.779  55.228  20.877  1.00  0.00    +0.065 C 
ATOM     19  C   UNL     1      48.623  56.115  20.159  1.00  0.00    +0.006 C 
ATOM     20  C   UNL     1      49.831  56.411  21.052  1.00  0.00    +0.006 C 
ENDBRANCH  13  16
ENDBRANCH  12  13
ENDBRANCH   2  12
TORSDOF 5
ENDMDL
