MODEL 1
REMARK VINA RESULT:    -6.799      0.000      0.000
REMARK INTER + INTRA:          -8.486
REMARK INTER:                  -8.190
REMARK INTRA:                  -0.296
REMARK UNBOUND:                -0.296
REMARK SMILES Nc1csc(S(=O)(=O)N[C@@H]2CCCNC2=O)c1
REMARK SMILES IDX 6 1 7 2 8 3 5 4 17 5 2 6 3 7 4 8 1 9 9 12 10 14 11 15 15 16
REMARK SMILES IDX 12 17 14 18 16 19 13 20
REMARK H PARENT 1 10 1 11 9 13 14 21
ROOT
ATOM      1  S   UNL     1      51.614  53.171  19.012  1.00  0.00    +0.250 S 
ATOM      2  O   UNL     1      52.786  53.123  18.165  1.00  0.00    -0.206 OA
ATOM      3  O   UNL     1      50.397  53.832  18.603  1.00  0.00    -0.206 OA
ENDROOT
BRANCH   1   4
ATOM      4  C   UNL     1      51.176  51.470  19.270  1.00  0.00    +0.137 A 
ATOM      5  C   UNL     1      51.727  50.485  20.068  1.00  0.00    +0.059 A 
ATOM      6  C   UNL     1      51.027  49.260  19.960  1.00  0.00    +0.044 A 
ATOM      7  C   UNL     1      49.965  49.333  19.094  1.00  0.00    +0.091 A 
ATOM      8  S   UNL     1      49.818  50.894  18.400  1.00  0.00    -0.129 S 
BRANCH   6   9
ATOM      9  N   UNL     1      51.363  48.147  20.639  1.00  0.00    -0.398 N 
ATOM     10  H   UNL     1      51.901  48.203  21.500  1.00  0.00    +0.156 HD
ATOM     11  H   UNL     1      51.487  47.259  20.160  1.00  0.00    +0.156 HD
ENDBRANCH   6   9
ENDBRANCH   1   4
BRANCH   1  12
ATOM     12  N   UNL     1      52.070  53.822  20.502  1.00  0.00    -0.198 NA
ATOM     13  H   UNL     1      51.721  53.191  21.234  1.00  0.00    +0.142 HD
BRANCH  12  14
ATOM     14  C   UNL     1      51.626  55.217  20.752  1.00  0.00    +0.159 C 
ATOM     15  C   UNL     1      52.640  56.186  20.142  1.00  0.00    +0.032 C 
ATOM     16  C   UNL     1      51.570  55.462  22.263  1.00  0.00    +0.238 C 
ATOM     17  C   UNL     1      52.343  57.653  20.494  1.00  0.00    +0.023 C 
ATOM     18  N   UNL     1      51.498  56.784  22.625  1.00  0.00    -0.355 N 
ATOM     19  O   UNL     1      51.618  54.566  23.101  1.00  0.00    -0.273 OA
ATOM     20  C   UNL     1      51.340  57.818  21.635  1.00  0.00    +0.116 C 
ATOM     21  H   UNL     1      51.377  56.971  23.614  1.00  0.00    +0.163 HD
ENDBRANCH  12  14
ENDBRANCH   1  12
TORSDOF 4
ENDMDL
MODEL 2
REMARK VINA RESULT:    -6.690      4.175      5.750
REMARK INTER + INTRA:          -8.355
REMARK INTER:                  -8.075
REMARK INTRA:                  -0.279
REMARK UNBOUND:                -0.296
REMARK SMILES Nc1csc(S(=O)(=O)N[C@@H]2CCCNC2=O)c1
REMARK SMILES IDX 6 1 7 2 8 3 5 4 17 5 2 6 3 7 4 8 1 9 9 12 10 14 11 15 15 16
REMARK SMILES IDX 12 17 14 18 16 19 13 20
REMARK H PARENT 1 10 1 11 9 13 14 21
ROOT
ATOM      1  S   UNL     1      48.622  49.699  17.381  1.00  0.00    +0.250 S 
ATOM      2  O   UNL     1      49.114  49.326  16.073  1.00  0.00    -0.206 OA
ATOM      3  O   UNL     1      48.283  51.062  17.714  1.00  0.00    -0.206 OA
ENDROOT
BRANCH   1   4
ATOM      4  C   UNL     1      47.123  48.767  17.577  1.00  0.00    +0.137 A 
ATOM      5  C   UNL     1      46.556  48.150  18.677  1.00  0.00    +0.059 A 
ATOM      6  C   UNL     1      45.326  47.526  18.361  1.00  0.00    +0.044 A 
ATOM      7  C   UNL     1      44.980  47.679  17.041  1.00  0.00    +0.091 A 
ATOM      8  S   UNL     1      46.155  48.579  16.177  1.00  0.00    -0.129 S 
BRANCH   6   9
ATOM      9  N   UNL     1      44.576  46.860  19.258  1.00  0.00    -0.398 N 
ATOM     10  H   UNL     1      44.181  45.950  19.035  1.00  0.00    +0.156 HD
ATOM     11  H   UNL     1      44.035  47.357  19.960  1.00  0.00    +0.156 HD
ENDBRANCH   6   9
ENDBRANCH   1   4
BRANCH   1  12
ATOM     12  N   UNL     1      49.728  49.153  18.534  1.00  0.00    -0.198 NA
ATOM     13  H   UNL     1      49.242  48.469  19.128  1.00  0.00    +0.142 HD
BRANCH  12  14
ATOM     14  C   UNL     1      50.364  50.211  19.359  1.00  0.00    +0.159 C 
ATOM     15  C   UNL     1      51.615  50.724  18.643  1.00  0.00    +0.032 C 
ATOM     16  C   UNL     1      50.788  49.611  20.703  1.00  0.00    +0.238 C 
ATOM     17  C   UNL     1      52.427  51.707  19.501  1.00  0.00    +0.023 C 
ATOM     18  N   UNL     1      51.671  50.380  21.419  1.00  0.00    -0.355 N 
ATOM     19  O   UNL     1      50.406  48.518  21.112  1.00  0.00    -0.273 OA
ATOM     20  C   UNL     1      52.032  51.703  20.977  1.00  0.00    +0.116 C 
ATOM     21  H   UNL     1      51.904  50.047  22.348  1.00  0.00    +0.163 HD
ENDBRANCH  12  14
ENDBRANCH   1  12
TORSDOF 4
ENDMDL
MODEL 3
REMARK VINA RESULT:    -6.608      3.069      6.190
REMARK INTER + INTRA:          -8.256
REMARK INTER:                  -7.939
REMARK INTRA:                  -0.317
REMARK UNBOUND:                -0.296
REMARK SMILES Nc1csc(S(=O)(=O)N[C@@H]2CCCNC2=O)c1
REMARK SMILES IDX 6 1 7 2 8 3 5 4 17 5 2 6 3 7 4 8 1 9 9 12 10 14 11 15 15 16
REMARK SMILES IDX 12 17 14 18 16 19 13 20
REMARK H PARENT 1 10 1 11 9 13 14 21
ROOT
ATOM      1  S   UNL     1      52.312  50.617  19.049  1.00  0.00    +0.250 S 
ATOM      2  O   UNL     1      52.752  51.086  17.753  1.00  0.00    -0.206 OA
ATOM      3  O   UNL     1      53.113  49.727  19.856  1.00  0.00    -0.206 OA
ENDROOT
BRANCH   1   4
ATOM      4  C   UNL     1      52.109  52.093  20.014  1.00  0.00    +0.137 A 
ATOM      5  C   UNL     1      51.849  52.290  21.357  1.00  0.00    +0.059 A 
ATOM      6  C   UNL     1      51.783  53.664  21.690  1.00  0.00    +0.044 A 
ATOM      7  C   UNL     1      51.994  54.481  20.607  1.00  0.00    +0.091 A 
ATOM      8  S   UNL     1      52.268  53.578  19.176  1.00  0.00    -0.129 S 
BRANCH   6   9
ATOM      9  N   UNL     1      51.545  54.119  22.934  1.00  0.00    -0.398 N 
ATOM     10  H   UNL     1      51.616  53.501  23.739  1.00  0.00    +0.156 HD
ATOM     11  H   UNL     1      50.908  54.894  23.096  1.00  0.00    +0.156 HD
ENDBRANCH   6   9
ENDBRANCH   1   4
BRANCH   1  12
ATOM     12  N   UNL     1      50.793  49.905  18.862  1.00  0.00    -0.198 NA
ATOM     13  H   UNL     1      50.924  48.886  18.899  1.00  0.00    +0.142 HD
BRANCH  12  14
ATOM     14  C   UNL     1      50.050  50.297  17.638  1.00  0.00    +0.159 C 
ATOM     15  C   UNL     1      49.308  51.609  17.897  1.00  0.00    +0.032 C 
ATOM     16  C   UNL     1      49.018  49.214  17.309  1.00  0.00    +0.238 C 
ATOM     17  C   UNL     1      48.382  52.005  16.736  1.00  0.00    +0.023 C 
ATOM     18  N   UNL     1      48.053  49.598  16.412  1.00  0.00    -0.355 N 
ATOM     19  O   UNL     1      49.016  48.098  17.820  1.00  0.00    -0.273 OA
ATOM     20  C   UNL     1      48.124  50.872  15.744  1.00  0.00    +0.116 C 
ATOM     21  H   UNL     1      47.406  48.876  16.114  1.00  0.00    +0.163 HD
ENDBRANCH  12  14
ENDBRANCH   1  12
TORSDOF 4
ENDMDL
MODEL 4
REMARK VINA RESULT:    -6.463      3.898      7.807
REMARK INTER + INTRA:          -8.082
REMARK INTER:                  -7.857
REMARK INTRA:                  -0.225
REMARK UNBOUND:                -0.296
REMARK SMILES Nc1csc(S(=O)(=O)N[C@@H]2CCCNC2=O)c1
REMARK SMILES IDX 6 1 7 2 8 3 5 4 17 5 2 6 3 7 4 8 1 9 9 12 10 14 11 15 15 16
REMARK SMILES IDX 12 17 14 18 16 19 13 20
REMARK H PARENT 1 10 1 11 9 13 14 21
ROOT
ATOM      1  S   UNL     1      49.415  50.342  17.421  1.00  0.00    +0.250 S 
ATOM      2  O   UNL     1      48.186  51.101  17.496  1.00  0.00    -0.206 OA
ATOM      3  O   UNL     1      50.269  50.377  16.257  1.00  0.00    -0.206 OA
ENDROOT
BRANCH   1   4
ATOM      4  C   UNL     1      50.402  50.955  18.763  1.00  0.00    +0.137 A 
ATOM      5  C   UNL     1      50.971  50.324  19.854  1.00  0.00    +0.059 A 
ATOM      6  C   UNL     1      51.697  51.225  20.670  1.00  0.00    +0.044 A 
ATOM      7  C   UNL     1      51.671  52.511  20.189  1.00  0.00    +0.091 A 
ATOM      8  S   UNL     1      50.756  52.630  18.745  1.00  0.00    -0.129 S 
BRANCH   6   9
ATOM      9  N   UNL     1      52.346  50.858  21.790  1.00  0.00    -0.398 N 
ATOM     10  H   UNL     1      51.895  50.271  22.486  1.00  0.00    +0.156 HD
ATOM     11  H   UNL     1      53.074  51.445  22.189  1.00  0.00    +0.156 HD
ENDBRANCH   6   9
ENDBRANCH   1   4
BRANCH   1  12
ATOM     12  N   UNL     1      49.053  48.724  17.738  1.00  0.00    -0.198 NA
ATOM     13  H   UNL     1      49.714  48.150  17.201  1.00  0.00    +0.142 HD
BRANCH  12  14
ATOM     14  C   UNL     1      47.652  48.317  17.459  1.00  0.00    +0.159 C 
ATOM     15  C   UNL     1      46.853  48.334  18.762  1.00  0.00    +0.032 C 
ATOM     16  C   UNL     1      47.647  46.888  16.905  1.00  0.00    +0.238 C 
ATOM     17  C   UNL     1      45.433  47.768  18.594  1.00  0.00    +0.023 C 
ATOM     18  N   UNL     1      46.418  46.276  16.917  1.00  0.00    -0.355 N 
ATOM     19  O   UNL     1      48.653  46.307  16.510  1.00  0.00    -0.273 OA
ATOM     20  C   UNL     1      45.230  47.001  17.289  1.00  0.00    +0.116 C 
ATOM     21  H   UNL     1      46.370  45.361  16.482  1.00  0.00    +0.163 HD
ENDBRANCH  12  14
ENDBRANCH   1  12
TORSDOF 4
ENDMDL
MODEL 5
REMARK VINA RESULT:    -6.451      3.044      6.545
REMARK INTER + INTRA:          -8.067
REMARK INTER:                  -7.699
REMARK INTRA:                  -0.367
REMARK UNBOUND:                -0.296
REMARK SMILES Nc1csc(S(=O)(=O)N[C@@H]2CCCNC2=O)c1
REMARK SMILES IDX 6 1 7 2 8 3 5 4 17 5 2 6 3 7 4 8 1 9 9 12 10 14 11 15 15 16
REMARK SMILES IDX 12 17 14 18 16 19 13 20
REMARK H PARENT 1 10 1 11 9 13 14 21
ROOT
ATOM      1  S   UNL     1      51.379  49.764  19.978  1.00  0.00    +0.250 S 
ATOM      2  O   UNL     1      52.741  49.301  19.823  1.00  0.00    -0.206 OA
ATOM      3  O   UNL     1      50.448  49.123  20.876  1.00  0.00    -0.206 OA
ENDROOT
BRANCH   1   4
ATOM      4  C   UNL     1      51.538  51.434  20.560  1.00  0.00    +0.137 A 
ATOM      5  C   UNL     1      51.429  51.986  21.822  1.00  0.00    +0.059 A 
ATOM      6  C   UNL     1      51.650  53.384  21.812  1.00  0.00    +0.044 A 
ATOM      7  C   UNL     1      51.924  53.866  20.555  1.00  0.00    +0.091 A 
ATOM      8  S   UNL     1      51.905  52.619  19.380  1.00  0.00    -0.129 S 
BRANCH   6   9
ATOM      9  N   UNL     1      51.604  54.155  22.914  1.00  0.00    -0.398 N 
ATOM     10  H   UNL     1      51.206  53.802  23.781  1.00  0.00    +0.156 HD
ATOM     11  H   UNL     1      51.546  55.167  22.844  1.00  0.00    +0.156 HD
ENDBRANCH   6   9
ENDBRANCH   1   4
BRANCH   1  12
ATOM     12  N   UNL     1      50.663  49.811  18.450  1.00  0.00    -0.198 NA
ATOM     13  H   UNL     1      50.979  50.673  17.988  1.00  0.00    +0.142 HD
BRANCH  12  14
ATOM     14  C   UNL     1      49.182  49.716  18.436  1.00  0.00    +0.159 C 
ATOM     15  C   UNL     1      48.769  48.328  17.945  1.00  0.00    +0.032 C 
ATOM     16  C   UNL     1      48.622  50.760  17.464  1.00  0.00    +0.238 C 
ATOM     17  C   UNL     1      47.251  48.197  17.744  1.00  0.00    +0.023 C 
ATOM     18  N   UNL     1      47.311  50.564  17.109  1.00  0.00    -0.355 N 
ATOM     19  O   UNL     1      49.284  51.685  17.003  1.00  0.00    -0.273 OA
ATOM     20  C   UNL     1      46.517  49.537  17.733  1.00  0.00    +0.116 C 
ATOM     21  H   UNL     1      46.891  51.285  16.532  1.00  0.00    +0.163 HD
ENDBRANCH  12  14
ENDBRANCH   1  12
TORSDOF 4
ENDMDL
