MODEL 1
REMARK VINA RESULT:    -6.588      0.000      0.000
REMARK INTER + INTRA:          -7.929
REMARK INTER:                  -7.936
REMARK INTRA:                   0.007
REMARK UNBOUND:                 0.007
REMARK SMILES CS(=O)(=O)NC1CCN(C(=O)[C@H]2C[C@@H]2[NH3+])CC1
REMARK SMILES IDX 6 1 7 2 8 3 9 4 16 5 17 6 10 7 11 8 5 9 2 11 3 12 4 13 1 14
REMARK SMILES IDX 12 15 13 16 14 17 15 18
REMARK H PARENT 5 10 15 19 15 20 15 21
ROOT
ATOM      1  C   UNL     1      51.632  53.153  20.596  1.00  0.00    +0.073 C 
ATOM      2  C   UNL     1      50.243  53.324  19.981  1.00  0.00    +0.041 C 
ATOM      3  C   UNL     1      49.929  54.797  19.763  1.00  0.00    +0.121 C 
ATOM      4  N   UNL     1      50.099  55.580  20.988  1.00  0.00    -0.342 N 
ATOM      5  C   UNL     1      51.371  55.399  21.692  1.00  0.00    +0.121 C 
ATOM      6  C   UNL     1      51.704  53.927  21.913  1.00  0.00    +0.041 C 
ATOM      7  C   UNL     1      49.394  56.749  21.244  1.00  0.00    +0.231 C 
ATOM      8  O   UNL     1      49.693  57.575  22.098  1.00  0.00    -0.274 OA
ENDROOT
BRANCH   1   9
ATOM      9  N   UNL     1      51.892  51.731  20.869  1.00  0.00    -0.212 NA
ATOM     10  H   UNL     1      51.262  51.236  21.504  1.00  0.00    +0.141 HD
BRANCH   9  11
ATOM     11  S   UNL     1      52.423  50.737  19.620  1.00  0.00    +0.208 S 
ATOM     12  O   UNL     1      53.393  49.813  20.161  1.00  0.00    -0.213 OA
ATOM     13  O   UNL     1      52.737  51.630  18.530  1.00  0.00    -0.213 OA
ATOM     14  C   UNL     1      50.931  49.852  19.217  1.00  0.00    +0.176 C 
ENDBRANCH   9  11
ENDBRANCH   1   9
BRANCH   7  15
ATOM     15  C   UNL     1      48.176  57.024  20.438  1.00  0.00    +0.142 C 
ATOM     16  C   UNL     1      47.436  58.337  20.552  1.00  0.00    +0.085 C 
ATOM     17  C   UNL     1      48.312  58.085  19.367  1.00  0.00    +0.194 C 
BRANCH  17  18
ATOM     18  N   UNL     1      47.655  57.842  18.077  1.00  0.00    -0.354 N 
ATOM     19  H   UNL     1      47.729  56.865  17.770  1.00  0.00    +0.344 HD
ATOM     20  H   UNL     1      46.656  58.084  18.128  1.00  0.00    +0.344 HD
ATOM     21  H   UNL     1      48.078  58.436  17.349  1.00  0.00    +0.344 HD
ENDBRANCH  17  18
ENDBRANCH   7  15
TORSDOF 4
ENDMDL
MODEL 2
REMARK VINA RESULT:    -6.273      3.681      6.600
REMARK INTER + INTRA:          -7.549
REMARK INTER:                  -7.547
REMARK INTRA:                  -0.002
REMARK UNBOUND:                 0.007
REMARK SMILES CS(=O)(=O)NC1CCN(C(=O)[C@H]2C[C@@H]2[NH3+])CC1
REMARK SMILES IDX 6 1 7 2 8 3 9 4 16 5 17 6 10 7 11 8 5 9 2 11 3 12 4 13 1 14
REMARK SMILES IDX 12 15 13 16 14 17 15 18
REMARK H PARENT 5 10 15 19 15 20 15 21
ROOT
ATOM      1  C   UNL     1      50.608  53.691  19.694  1.00  0.00    +0.073 C 
ATOM      2  C   UNL     1      51.007  52.225  19.524  1.00  0.00    +0.041 C 
ATOM      3  C   UNL     1      50.894  51.804  18.065  1.00  0.00    +0.121 C 
ATOM      4  N   UNL     1      49.569  52.092  17.513  1.00  0.00    -0.342 N 
ATOM      5  C   UNL     1      49.072  53.454  17.721  1.00  0.00    +0.121 C 
ATOM      6  C   UNL     1      49.185  53.895  19.176  1.00  0.00    +0.041 C 
ATOM      7  C   UNL     1      49.007  51.363  16.473  1.00  0.00    +0.231 C 
ATOM      8  O   UNL     1      48.051  51.726  15.800  1.00  0.00    -0.274 OA
ENDROOT
BRANCH   1   9
ATOM      9  N   UNL     1      50.652  54.064  21.117  1.00  0.00    -0.212 NA
ATOM     10  H   UNL     1      50.659  53.316  21.814  1.00  0.00    +0.141 HD
BRANCH   9  11
ATOM     11  S   UNL     1      51.597  55.370  21.597  1.00  0.00    +0.208 S 
ATOM     12  O   UNL     1      52.647  55.549  20.620  1.00  0.00    -0.213 OA
ATOM     13  O   UNL     1      51.879  55.144  22.995  1.00  0.00    -0.213 OA
ATOM     14  C   UNL     1      50.435  56.713  21.463  1.00  0.00    +0.176 C 
ENDBRANCH   9  11
ENDBRANCH   1   9
BRANCH   7  15
ATOM     15  C   UNL     1      49.592  50.035  16.152  1.00  0.00    +0.142 C 
ATOM     16  C   UNL     1      48.949  49.116  15.138  1.00  0.00    +0.085 C 
ATOM     17  C   UNL     1      50.176  49.883  14.763  1.00  0.00    +0.194 C 
BRANCH  17  18
ATOM     18  N   UNL     1      51.430  49.134  14.627  1.00  0.00    -0.354 N 
ATOM     19  H   UNL     1      52.172  49.482  15.247  1.00  0.00    +0.344 HD
ATOM     20  H   UNL     1      51.282  48.138  14.838  1.00  0.00    +0.344 HD
ATOM     21  H   UNL     1      51.773  49.194  13.658  1.00  0.00    +0.344 HD
ENDBRANCH  17  18
ENDBRANCH   7  15
TORSDOF 4
ENDMDL
MODEL 3
REMARK VINA RESULT:    -6.002      3.537      6.275
REMARK INTER + INTRA:          -7.223
REMARK INTER:                  -7.170
REMARK INTRA:                  -0.053
REMARK UNBOUND:                 0.007
REMARK SMILES CS(=O)(=O)NC1CCN(C(=O)[C@H]2C[C@@H]2[NH3+])CC1
REMARK SMILES IDX 6 1 7 2 8 3 9 4 16 5 17 6 10 7 11 8 5 9 2 11 3 12 4 13 1 14
REMARK SMILES IDX 12 15 13 16 14 17 15 18
REMARK H PARENT 5 10 15 19 15 20 15 21
ROOT
ATOM      1  C   UNL     1      51.418  54.125  20.138  1.00  0.00    +0.073 C 
ATOM      2  C   UNL     1      51.038  53.695  18.721  1.00  0.00    +0.041 C 
ATOM      3  C   UNL     1      50.031  52.554  18.758  1.00  0.00    +0.121 C 
ATOM      4  N   UNL     1      50.503  51.434  19.575  1.00  0.00    -0.342 N 
ATOM      5  C   UNL     1      50.977  51.778  20.918  1.00  0.00    +0.121 C 
ATOM      6  C   UNL     1      51.981  52.925  20.900  1.00  0.00    +0.041 C 
ATOM      7  C   UNL     1      50.111  50.120  19.358  1.00  0.00    +0.231 C 
ATOM      8  O   UNL     1      50.245  49.207  20.162  1.00  0.00    -0.274 OA
ENDROOT
BRANCH   1   9
ATOM      9  N   UNL     1      52.445  55.178  20.089  1.00  0.00    -0.212 NA
ATOM     10  H   UNL     1      52.866  55.402  19.184  1.00  0.00    +0.141 HD
BRANCH   9  11
ATOM     11  S   UNL     1      52.265  56.549  21.047  1.00  0.00    +0.208 S 
ATOM     12  O   UNL     1      52.353  56.144  22.432  1.00  0.00    -0.213 OA
ATOM     13  O   UNL     1      51.109  57.234  20.520  1.00  0.00    -0.213 OA
ATOM     14  C   UNL     1      53.721  57.476  20.611  1.00  0.00    +0.176 C 
ENDBRANCH   9  11
ENDBRANCH   1   9
BRANCH   7  15
ATOM     15  C   UNL     1      49.492  49.780  18.050  1.00  0.00    +0.142 C 
ATOM     16  C   UNL     1      48.856  48.430  17.806  1.00  0.00    +0.085 C 
ATOM     17  C   UNL     1      47.986  49.623  18.045  1.00  0.00    +0.194 C 
BRANCH  17  18
ATOM     18  N   UNL     1      47.246  50.164  16.900  1.00  0.00    -0.354 N 
ATOM     19  H   UNL     1      47.353  49.595  16.051  1.00  0.00    +0.344 HD
ATOM     20  H   UNL     1      46.242  50.227  17.115  1.00  0.00    +0.344 HD
ATOM     21  H   UNL     1      47.574  51.117  16.686  1.00  0.00    +0.344 HD
ENDBRANCH  17  18
ENDBRANCH   7  15
TORSDOF 4
ENDMDL
MODEL 4
REMARK VINA RESULT:    -5.539      5.698      9.593
REMARK INTER + INTRA:          -6.666
REMARK INTER:                  -6.585
REMARK INTRA:                  -0.081
REMARK UNBOUND:                 0.007
REMARK SMILES CS(=O)(=O)NC1CCN(C(=O)[C@H]2C[C@@H]2[NH3+])CC1
REMARK SMILES IDX 6 1 7 2 8 3 9 4 16 5 17 6 10 7 11 8 5 9 2 11 3 12 4 13 1 14
REMARK SMILES IDX 12 15 13 16 14 17 15 18
REMARK H PARENT 5 10 15 19 15 20 15 21
ROOT
ATOM      1  C   UNL     1      46.007  61.172  17.882  1.00  0.00    +0.073 C 
ATOM      2  C   UNL     1      46.084  60.682  19.329  1.00  0.00    +0.041 C 
ATOM      3  C   UNL     1      47.306  59.798  19.533  1.00  0.00    +0.121 C 
ATOM      4  N   UNL     1      47.354  58.699  18.566  1.00  0.00    -0.342 N 
ATOM      5  C   UNL     1      47.191  59.077  17.160  1.00  0.00    +0.121 C 
ATOM      6  C   UNL     1      45.974  59.969  16.939  1.00  0.00    +0.041 C 
ATOM      7  C   UNL     1      47.976  57.486  18.829  1.00  0.00    +0.231 C 
ATOM      8  O   UNL     1      48.286  56.659  17.981  1.00  0.00    -0.274 OA
ENDROOT
BRANCH   1   9
ATOM      9  N   UNL     1      44.784  61.964  17.681  1.00  0.00    -0.212 NA
ATOM     10  H   UNL     1      43.892  61.563  17.978  1.00  0.00    +0.141 HD
BRANCH   9  11
ATOM     11  S   UNL     1      44.830  63.628  17.930  1.00  0.00    +0.208 S 
ATOM     12  O   UNL     1      44.547  63.882  19.324  1.00  0.00    -0.213 OA
ATOM     13  O   UNL     1      44.033  64.194  16.868  1.00  0.00    -0.213 OA
ATOM     14  C   UNL     1      46.544  63.983  17.605  1.00  0.00    +0.176 C 
ENDBRANCH   9  11
ENDBRANCH   1   9
BRANCH   7  15
ATOM     15  C   UNL     1      48.282  57.147  20.244  1.00  0.00    +0.142 C 
ATOM     16  C   UNL     1      49.233  56.025  20.597  1.00  0.00    +0.085 C 
ATOM     17  C   UNL     1      49.692  57.444  20.709  1.00  0.00    +0.194 C 
BRANCH  17  18
ATOM     18  N   UNL     1      49.865  57.997  22.058  1.00  0.00    -0.354 N 
ATOM     19  H   UNL     1      50.732  58.538  22.159  1.00  0.00    +0.344 HD
ATOM     20  H   UNL     1      49.077  58.613  22.300  1.00  0.00    +0.344 HD
ATOM     21  H   UNL     1      49.882  57.235  22.751  1.00  0.00    +0.344 HD
ENDBRANCH  17  18
ENDBRANCH   7  15
TORSDOF 4
ENDMDL
MODEL 5
REMARK VINA RESULT:    -5.017      3.199      6.591
REMARK INTER + INTRA:          -6.037
REMARK INTER:                  -7.187
REMARK INTRA:                   1.150
REMARK UNBOUND:                 0.007
REMARK SMILES CS(=O)(=O)NC1CCN(C(=O)[C@H]2C[C@@H]2[NH3+])CC1
REMARK SMILES IDX 6 1 7 2 8 3 9 4 16 5 17 6 10 7 11 8 5 9 2 11 3 12 4 13 1 14
REMARK SMILES IDX 12 15 13 16 14 17 15 18
REMARK H PARENT 5 10 15 19 15 20 15 21
ROOT
ATOM      1  C   UNL     1      51.100  55.136  19.421  1.00  0.00    +0.073 C 
ATOM      2  C   UNL     1      51.968  54.060  20.074  1.00  0.00    +0.041 C 
ATOM      3  C   UNL     1      51.908  52.765  19.276  1.00  0.00    +0.121 C 
ATOM      4  N   UNL     1      50.530  52.319  19.060  1.00  0.00    -0.342 N 
ATOM      5  C   UNL     1      49.609  53.324  18.525  1.00  0.00    +0.121 C 
ATOM      6  C   UNL     1      49.661  54.631  19.309  1.00  0.00    +0.041 C 
ATOM      7  C   UNL     1      50.185  50.985  18.885  1.00  0.00    +0.231 C 
ATOM      8  O   UNL     1      49.119  50.591  18.430  1.00  0.00    -0.274 OA
ENDROOT
BRANCH   1   9
ATOM      9  N   UNL     1      51.109  56.358  20.241  1.00  0.00    -0.212 NA
ATOM     10  H   UNL     1      50.246  56.627  20.721  1.00  0.00    +0.141 HD
BRANCH   9  11
ATOM     11  S   UNL     1      52.470  56.723  21.160  1.00  0.00    +0.208 S 
ATOM     12  O   UNL     1      53.636  56.558  20.322  1.00  0.00    -0.213 OA
ATOM     13  O   UNL     1      52.303  55.995  22.395  1.00  0.00    -0.213 OA
ATOM     14  C   UNL     1      52.221  58.456  21.484  1.00  0.00    +0.176 C 
ENDBRANCH   9  11
ENDBRANCH   1   9
BRANCH   7  15
ATOM     15  C   UNL     1      51.170  49.947  19.289  1.00  0.00    +0.142 C 
ATOM     16  C   UNL     1      52.106  50.163  20.456  1.00  0.00    +0.085 C 
ATOM     17  C   UNL     1      50.917  49.272  20.620  1.00  0.00    +0.194 C 
BRANCH  17  18
ATOM     18  N   UNL     1      51.158  47.827  20.710  1.00  0.00    -0.354 N 
ATOM     19  H   UNL     1      50.306  47.292  20.918  1.00  0.00    +0.344 HD
ATOM     20  H   UNL     1      51.549  47.469  19.828  1.00  0.00    +0.344 HD
ATOM     21  H   UNL     1      51.845  47.630  21.452  1.00  0.00    +0.344 HD
ENDBRANCH  17  18
ENDBRANCH   7  15
TORSDOF 4
ENDMDL
