MODEL 1
REMARK VINA RESULT:    -7.652      0.000      0.000
REMARK INTER + INTRA:         -10.083
REMARK INTER:                  -9.664
REMARK INTRA:                  -0.418
REMARK UNBOUND:                -0.418
REMARK SMILES CC(=O)Nc1ccc(NC(=O)[C@@H]2C[C@H]2[NH3+])c(C(F)(F)F)c1
REMARK SMILES IDX 9 1 10 2 11 3 8 5 5 6 6 7 21 8 7 9 16 10 4 11 2 12 3 13 1 14
REMARK SMILES IDX 17 16 18 17 19 18 20 19 12 20 13 21 14 22 15 23
REMARK H PARENT 9 4 4 15 15 24 15 25 15 26
ROOT
ATOM      1  N   UNL     1      50.640  53.983  20.745  1.00  0.00    -0.325 N 
ATOM      2  C   UNL     1      51.422  53.390  19.784  1.00  0.00    +0.233 C 
ATOM      3  O   UNL     1      51.649  53.745  18.641  1.00  0.00    -0.274 OA
ATOM      4  H   UNL     1      50.586  53.500  21.640  1.00  0.00    +0.169 HD
ENDROOT
BRANCH   1   5
ATOM      5  C   UNL     1      49.913  55.195  20.652  1.00  0.00    +0.053 A 
ATOM      6  C   UNL     1      48.488  57.647  20.457  1.00  0.00    +0.041 A 
ATOM      7  C   UNL     1      47.940  56.461  19.974  1.00  0.00    +0.028 A 
ATOM      8  C   UNL     1      49.750  57.599  21.045  1.00  0.00    +0.041 A 
ATOM      9  C   UNL     1      48.641  55.251  20.069  1.00  0.00    +0.029 A 
ATOM     10  C   UNL     1      50.475  56.388  21.149  1.00  0.00    +0.081 A 
BRANCH   6  11
ATOM     11  N   UNL     1      47.723  58.822  20.318  1.00  0.00    -0.326 N 
ATOM     12  C   UNL     1      47.407  59.484  19.144  1.00  0.00    +0.221 C 
ATOM     13  O   UNL     1      47.734  59.155  18.009  1.00  0.00    -0.275 OA
ATOM     14  C   UNL     1      46.552  60.702  19.386  1.00  0.00    +0.114 C 
ATOM     15  H   UNL     1      47.364  59.228  21.173  1.00  0.00    +0.169 HD
ENDBRANCH   6  11
BRANCH  10  16
ATOM     16  C   UNL     1      51.824  56.464  21.822  1.00  0.00    +0.418 C 
ATOM     17  F   UNL     1      52.157  57.734  22.217  1.00  0.00    -0.166 F 
ATOM     18  F   UNL     1      51.904  55.709  22.949  1.00  0.00    -0.166 F 
ATOM     19  F   UNL     1      52.841  56.065  21.012  1.00  0.00    -0.166 F 
ENDBRANCH  10  16
ENDBRANCH   1   5
BRANCH   2  20
ATOM     20  C   UNL     1      52.073  52.135  20.251  1.00  0.00    +0.142 C 
ATOM     21  C   UNL     1      52.355  50.998  19.296  1.00  0.00    +0.085 C 
ATOM     22  C   UNL     1      51.211  50.892  20.257  1.00  0.00    +0.194 C 
BRANCH  22  23
ATOM     23  N   UNL     1      51.358  49.966  21.387  1.00  0.00    -0.354 N 
ATOM     24  H   UNL     1      52.078  49.259  21.175  1.00  0.00    +0.344 HD
ATOM     25  H   UNL     1      51.662  50.469  22.232  1.00  0.00    +0.344 HD
ATOM     26  H   UNL     1      50.486  49.470  21.612  1.00  0.00    +0.344 HD
ENDBRANCH  22  23
ENDBRANCH   2  20
TORSDOF 5
ENDMDL
MODEL 2
REMARK VINA RESULT:    -7.587      3.444      6.825
REMARK INTER + INTRA:         -10.002
REMARK INTER:                  -9.512
REMARK INTRA:                  -0.490
REMARK UNBOUND:                -0.418
REMARK SMILES CC(=O)Nc1ccc(NC(=O)[C@@H]2C[C@H]2[NH3+])c(C(F)(F)F)c1
REMARK SMILES IDX 9 1 10 2 11 3 8 5 5 6 6 7 21 8 7 9 16 10 4 11 2 12 3 13 1 14
REMARK SMILES IDX 17 16 18 17 19 18 20 19 12 20 13 21 14 22 15 23
REMARK H PARENT 9 4 4 15 15 24 15 25 15 26
ROOT
ATOM      1  N   UNL     1      50.761  54.234  21.107  1.00  0.00    -0.325 N 
ATOM      2  C   UNL     1      51.835  55.084  21.017  1.00  0.00    +0.233 C 
ATOM      3  O   UNL     1      52.798  55.042  20.272  1.00  0.00    -0.274 OA
ATOM      4  H   UNL     1      50.069  54.458  21.819  1.00  0.00    +0.169 HD
ENDROOT
BRANCH   1   5
ATOM      5  C   UNL     1      50.485  53.090  20.317  1.00  0.00    +0.053 A 
ATOM      6  C   UNL     1      49.935  50.819  18.700  1.00  0.00    +0.041 A 
ATOM      7  C   UNL     1      50.720  50.708  19.845  1.00  0.00    +0.028 A 
ATOM      8  C   UNL     1      49.420  52.071  18.371  1.00  0.00    +0.041 A 
ATOM      9  C   UNL     1      50.992  51.826  20.644  1.00  0.00    +0.029 A 
ATOM     10  C   UNL     1      49.685  53.213  19.163  1.00  0.00    +0.081 A 
BRANCH   6  11
ATOM     11  N   UNL     1      49.712  49.649  17.947  1.00  0.00    -0.326 N 
ATOM     12  C   UNL     1      48.653  48.765  18.061  1.00  0.00    +0.221 C 
ATOM     13  O   UNL     1      47.710  48.852  18.840  1.00  0.00    -0.275 OA
ATOM     14  C   UNL     1      48.744  47.632  17.071  1.00  0.00    +0.114 C 
ATOM     15  H   UNL     1      50.405  49.430  17.242  1.00  0.00    +0.169 HD
ENDBRANCH   6  11
BRANCH  10  16
ATOM     16  C   UNL     1      49.057  54.509  18.711  1.00  0.00    +0.418 C 
ATOM     17  F   UNL     1      48.317  54.377  17.565  1.00  0.00    -0.166 F 
ATOM     18  F   UNL     1      48.202  55.038  19.627  1.00  0.00    -0.166 F 
ATOM     19  F   UNL     1      49.976  55.472  18.434  1.00  0.00    -0.166 F 
ENDBRANCH  10  16
ENDBRANCH   1   5
BRANCH   2  20
ATOM     20  C   UNL     1      51.774  56.211  21.988  1.00  0.00    +0.142 C 
ATOM     21  C   UNL     1      50.595  57.156  22.016  1.00  0.00    +0.085 C 
ATOM     22  C   UNL     1      51.890  57.604  21.411  1.00  0.00    +0.194 C 
BRANCH  22  23
ATOM     23  N   UNL     1      52.684  58.588  22.158  1.00  0.00    -0.354 N 
ATOM     24  H   UNL     1      53.403  58.110  22.721  1.00  0.00    +0.344 HD
ATOM     25  H   UNL     1      53.172  59.226  21.513  1.00  0.00    +0.344 HD
ATOM     26  H   UNL     1      52.114  59.159  22.794  1.00  0.00    +0.344 HD
ENDBRANCH  22  23
ENDBRANCH   2  20
TORSDOF 5
ENDMDL
MODEL 3
REMARK VINA RESULT:    -7.587      3.509      6.923
REMARK INTER + INTRA:         -10.001
REMARK INTER:                  -9.508
REMARK INTRA:                  -0.493
REMARK UNBOUND:                -0.418
REMARK SMILES CC(=O)Nc1ccc(NC(=O)[C@@H]2C[C@H]2[NH3+])c(C(F)(F)F)c1
REMARK SMILES IDX 9 1 10 2 11 3 8 5 5 6 6 7 21 8 7 9 16 10 4 11 2 12 3 13 1 14
REMARK SMILES IDX 17 16 18 17 19 18 20 19 12 20 13 21 14 22 15 23
REMARK H PARENT 9 4 4 15 15 24 15 25 15 26
ROOT
ATOM      1  N   UNL     1      50.327  54.056  19.728  1.00  0.00    -0.325 N 
ATOM      2  C   UNL     1      51.335  54.961  19.502  1.00  0.00    +0.233 C 
ATOM      3  O   UNL     1      52.289  54.886  18.750  1.00  0.00    -0.274 OA
ATOM      4  H   UNL     1      49.627  54.325  20.418  1.00  0.00    +0.169 HD
ENDROOT
BRANCH   1   5
ATOM      5  C   UNL     1      50.128  52.798  19.107  1.00  0.00    +0.053 A 
ATOM      6  C   UNL     1      49.721  50.258  17.898  1.00  0.00    +0.041 A 
ATOM      7  C   UNL     1      49.299  51.427  17.267  1.00  0.00    +0.028 A 
ATOM      8  C   UNL     1      50.354  50.367  19.134  1.00  0.00    +0.041 A 
ATOM      9  C   UNL     1      49.499  52.679  17.862  1.00  0.00    +0.029 A 
ATOM     10  C   UNL     1      50.563  51.623  19.752  1.00  0.00    +0.081 A 
BRANCH   6  11
ATOM     11  N   UNL     1      49.477  49.037  17.237  1.00  0.00    -0.326 N 
ATOM     12  C   UNL     1      48.469  48.126  17.502  1.00  0.00    +0.221 C 
ATOM     13  O   UNL     1      47.599  48.228  18.360  1.00  0.00    -0.275 OA
ATOM     14  C   UNL     1      48.513  46.939  16.574  1.00  0.00    +0.114 C 
ATOM     15  H   UNL     1      50.110  48.800  16.484  1.00  0.00    +0.169 HD
ENDBRANCH   6  11
BRANCH  10  16
ATOM     16  C   UNL     1      51.275  51.610  21.083  1.00  0.00    +0.418 C 
ATOM     17  F   UNL     1      52.408  52.381  21.095  1.00  0.00    -0.166 F 
ATOM     18  F   UNL     1      50.512  52.083  22.103  1.00  0.00    -0.166 F 
ATOM     19  F   UNL     1      51.687  50.366  21.449  1.00  0.00    -0.166 F 
ENDBRANCH  10  16
ENDBRANCH   1   5
BRANCH   2  20
ATOM     20  C   UNL     1      51.200  56.203  20.313  1.00  0.00    +0.142 C 
ATOM     21  C   UNL     1      52.379  57.120  20.539  1.00  0.00    +0.085 C 
ATOM     22  C   UNL     1      51.918  56.219  21.644  1.00  0.00    +0.194 C 
BRANCH  22  23
ATOM     23  N   UNL     1      51.230  56.838  22.783  1.00  0.00    -0.354 N 
ATOM     24  H   UNL     1      51.178  57.860  22.653  1.00  0.00    +0.344 HD
ATOM     25  H   UNL     1      50.264  56.489  22.858  1.00  0.00    +0.344 HD
ATOM     26  H   UNL     1      51.700  56.658  23.679  1.00  0.00    +0.344 HD
ENDBRANCH  22  23
ENDBRANCH   2  20
TORSDOF 5
ENDMDL
MODEL 4
REMARK VINA RESULT:    -7.481      3.443      6.544
REMARK INTER + INTRA:          -9.868
REMARK INTER:                  -9.465
REMARK INTRA:                  -0.402
REMARK UNBOUND:                -0.418
REMARK SMILES CC(=O)Nc1ccc(NC(=O)[C@@H]2C[C@H]2[NH3+])c(C(F)(F)F)c1
REMARK SMILES IDX 9 1 10 2 11 3 8 5 5 6 6 7 21 8 7 9 16 10 4 11 2 12 3 13 1 14
REMARK SMILES IDX 17 16 18 17 19 18 20 19 12 20 13 21 14 22 15 23
REMARK H PARENT 9 4 4 15 15 24 15 25 15 26
ROOT
ATOM      1  N   UNL     1      50.427  54.547  20.591  1.00  0.00    -0.325 N 
ATOM      2  C   UNL     1      51.556  55.327  20.650  1.00  0.00    +0.233 C 
ATOM      3  O   UNL     1      52.563  55.287  19.965  1.00  0.00    -0.274 OA
ATOM      4  H   UNL     1      49.703  54.754  21.277  1.00  0.00    +0.169 HD
ENDROOT
BRANCH   1   5
ATOM      5  C   UNL     1      50.135  53.501  19.681  1.00  0.00    +0.053 A 
ATOM      6  C   UNL     1      49.540  51.378  17.887  1.00  0.00    +0.041 A 
ATOM      7  C   UNL     1      49.236  52.698  17.560  1.00  0.00    +0.028 A 
ATOM      8  C   UNL     1      50.150  51.126  19.114  1.00  0.00    +0.041 A 
ATOM      9  C   UNL     1      49.529  53.745  18.443  1.00  0.00    +0.029 A 
ATOM     10  C   UNL     1      50.452  52.171  20.020  1.00  0.00    +0.081 A 
BRANCH   6  11
ATOM     11  N   UNL     1      49.208  50.381  16.949  1.00  0.00    -0.326 N 
ATOM     12  C   UNL     1      48.156  49.483  17.014  1.00  0.00    +0.221 C 
ATOM     13  O   UNL     1      47.319  49.403  17.905  1.00  0.00    -0.275 OA
ATOM     14  C   UNL     1      48.107  48.572  15.814  1.00  0.00    +0.114 C 
ATOM     15  H   UNL     1      49.805  50.315  16.134  1.00  0.00    +0.169 HD
ENDBRANCH   6  11
BRANCH  10  16
ATOM     16  C   UNL     1      51.128  51.771  21.310  1.00  0.00    +0.418 C 
ATOM     17  F   UNL     1      50.475  52.229  22.424  1.00  0.00    -0.166 F 
ATOM     18  F   UNL     1      51.212  50.424  21.476  1.00  0.00    -0.166 F 
ATOM     19  F   UNL     1      52.395  52.256  21.414  1.00  0.00    -0.166 F 
ENDBRANCH  10  16
ENDBRANCH   1   5
BRANCH   2  20
ATOM     20  C   UNL     1      51.498  56.363  21.717  1.00  0.00    +0.142 C 
ATOM     21  C   UNL     1      50.371  57.367  21.772  1.00  0.00    +0.085 C 
ATOM     22  C   UNL     1      51.720  57.794  21.280  1.00  0.00    +0.194 C 
BRANCH  22  23
ATOM     23  N   UNL     1      52.520  58.659  22.156  1.00  0.00    -0.354 N 
ATOM     24  H   UNL     1      52.918  58.108  22.931  1.00  0.00    +0.344 HD
ATOM     25  H   UNL     1      53.308  59.072  21.637  1.00  0.00    +0.344 HD
ATOM     26  H   UNL     1      51.973  59.427  22.564  1.00  0.00    +0.344 HD
ENDBRANCH  22  23
ENDBRANCH   2  20
TORSDOF 5
ENDMDL
MODEL 5
REMARK VINA RESULT:    -7.129      4.686      7.115
REMARK INTER + INTRA:          -9.423
REMARK INTER:                  -8.907
REMARK INTRA:                  -0.515
REMARK UNBOUND:                -0.418
REMARK SMILES CC(=O)Nc1ccc(NC(=O)[C@@H]2C[C@H]2[NH3+])c(C(F)(F)F)c1
REMARK SMILES IDX 9 1 10 2 11 3 8 5 5 6 6 7 21 8 7 9 16 10 4 11 2 12 3 13 1 14
REMARK SMILES IDX 17 16 18 17 19 18 20 19 12 20 13 21 14 22 15 23
REMARK H PARENT 9 4 4 15 15 24 15 25 15 26
ROOT
ATOM      1  N   UNL     1      50.594  52.746  19.315  1.00  0.00    -0.325 N 
ATOM      2  C   UNL     1      51.843  53.223  19.000  1.00  0.00    +0.233 C 
ATOM      3  O   UNL     1      52.527  53.013  18.014  1.00  0.00    -0.274 OA
ATOM      4  H   UNL     1      50.212  53.048  20.209  1.00  0.00    +0.169 HD
ENDROOT
BRANCH   1   5
ATOM      5  C   UNL     1      49.762  51.900  18.542  1.00  0.00    +0.053 A 
ATOM      6  C   UNL     1      48.086  50.178  17.024  1.00  0.00    +0.041 A 
ATOM      7  C   UNL     1      48.074  51.555  16.814  1.00  0.00    +0.028 A 
ATOM      8  C   UNL     1      48.947  49.665  17.992  1.00  0.00    +0.041 A 
ATOM      9  C   UNL     1      48.900  52.405  17.561  1.00  0.00    +0.029 A 
ATOM     10  C   UNL     1      49.786  50.507  18.759  1.00  0.00    +0.081 A 
BRANCH   6  11
ATOM     11  N   UNL     1      47.222  49.391  16.236  1.00  0.00    -0.326 N 
ATOM     12  C   UNL     1      45.931  48.998  16.544  1.00  0.00    +0.221 C 
ATOM     13  O   UNL     1      45.306  49.274  17.561  1.00  0.00    -0.275 OA
ATOM     14  C   UNL     1      45.308  48.174  15.446  1.00  0.00    +0.114 C 
ATOM     15  H   UNL     1      47.586  49.080  15.344  1.00  0.00    +0.169 HD
ENDBRANCH   6  11
BRANCH  10  16
ATOM     16  C   UNL     1      50.685  49.830  19.765  1.00  0.00    +0.418 C 
ATOM     17  F   UNL     1      52.014  49.904  19.436  1.00  0.00    -0.166 F 
ATOM     18  F   UNL     1      50.597  50.368  21.010  1.00  0.00    -0.166 F 
ATOM     19  F   UNL     1      50.424  48.501  19.895  1.00  0.00    -0.166 F 
ENDBRANCH  10  16
ENDBRANCH   1   5
BRANCH   2  20
ATOM     20  C   UNL     1      52.406  54.127  20.040  1.00  0.00    +0.142 C 
ATOM     21  C   UNL     1      51.536  54.690  21.139  1.00  0.00    +0.085 C 
ATOM     22  C   UNL     1      51.949  55.568  19.998  1.00  0.00    +0.194 C 
BRANCH  22  23
ATOM     23  N   UNL     1      52.948  56.609  20.268  1.00  0.00    -0.354 N 
ATOM     24  H   UNL     1      53.134  56.668  21.281  1.00  0.00    +0.344 HD
ATOM     25  H   UNL     1      53.840  56.386  19.805  1.00  0.00    +0.344 HD
ATOM     26  H   UNL     1      52.651  57.539  19.948  1.00  0.00    +0.344 HD
ENDBRANCH  22  23
ENDBRANCH   2  20
TORSDOF 5
ENDMDL
