MODEL 1
REMARK VINA RESULT:    -6.548      0.000      0.000
REMARK INTER + INTRA:          -9.749
REMARK INTER:                  -8.845
REMARK INTRA:                  -0.904
REMARK UNBOUND:                -0.904
REMARK SMILES CN(CCO)c1ccc([N+](=O)[O-])cc1/C(N)=N/O
REMARK SMILES IDX 1 1 2 2 3 3 4 4 5 5 6 7 7 8 14 9 8 10 13 11 9 12 15 13 17 14
REMARK SMILES IDX 16 15 18 18 10 20 11 21 12 22
REMARK H PARENT 5 6 16 16 16 17 18 19
ROOT
ATOM      1  C   UNL     1      50.249  50.558  16.316  1.00  0.00    +0.143 C 
ATOM      2  N   UNL     1      49.912  50.384  17.732  1.00  0.00    -0.372 N 
ENDROOT
BRANCH   2   3
ATOM      3  C   UNL     1      48.500  50.015  18.033  1.00  0.00    +0.144 C 
BRANCH   3   4
ATOM      4  C   UNL     1      48.228  48.504  18.128  1.00  0.00    +0.177 C 
BRANCH   4   5
ATOM      5  O   UNL     1      49.432  47.751  18.282  1.00  0.00    -0.395 OA
ATOM      6  H   UNL     1      50.003  48.238  18.902  1.00  0.00    +0.210 HD
ENDBRANCH   4   5
ENDBRANCH   3   4
ENDBRANCH   2   3
BRANCH   2   7
ATOM      7  C   UNL     1      50.437  51.337  18.634  1.00  0.00    +0.048 A 
ATOM      8  C   UNL     1      50.199  52.713  18.429  1.00  0.00    +0.034 A 
ATOM      9  C   UNL     1      51.190  50.958  19.783  1.00  0.00    +0.050 A 
ATOM     10  C   UNL     1      50.662  53.685  19.319  1.00  0.00    +0.088 A 
ATOM     11  C   UNL     1      51.651  51.944  20.680  1.00  0.00    +0.099 A 
ATOM     12  C   UNL     1      51.384  53.295  20.445  1.00  0.00    +0.270 A 
BRANCH   9  13
ATOM     13  C   UNL     1      51.600  49.529  20.078  1.00  0.00    +0.172 C 
ATOM     14  N   UNL     1      50.765  48.757  20.719  1.00  0.00    -0.071 NA
ATOM     15  N   UNL     1      52.842  49.078  19.708  1.00  0.00    -0.380 N 
ATOM     16  H   UNL     1      53.133  48.286  20.270  1.00  0.00    +0.158 HD
ATOM     17  H   UNL     1      53.533  49.820  19.603  1.00  0.00    +0.158 HD
BRANCH  14  18
ATOM     18  O   UNL     1      51.320  47.487  20.951  1.00  0.00    -0.409 OA
ATOM     19  H   UNL     1      50.798  47.175  21.713  1.00  0.00    +0.330 HD
ENDBRANCH  14  18
ENDBRANCH   9  13
BRANCH  12  20
ATOM     20  N   UNL     1      51.871  54.313  21.386  1.00  0.00    +0.062 N 
ATOM     21  O   UNL     1      51.847  54.037  22.594  1.00  0.00    -0.258 OA
ATOM     22  O   UNL     1      52.278  55.385  20.920  1.00  0.00    -0.258 OA
ENDBRANCH  12  20
ENDBRANCH   2   7
TORSDOF 7
ENDMDL
MODEL 2
REMARK VINA RESULT:    -6.468      3.550      5.929
REMARK INTER + INTRA:          -9.641
REMARK INTER:                  -9.162
REMARK INTRA:                  -0.479
REMARK UNBOUND:                -0.904
REMARK SMILES CN(CCO)c1ccc([N+](=O)[O-])cc1/C(N)=N/O
REMARK SMILES IDX 1 1 2 2 3 3 4 4 5 5 6 7 7 8 14 9 8 10 13 11 9 12 15 13 17 14
REMARK SMILES IDX 16 15 18 18 10 20 11 21 12 22
REMARK H PARENT 5 6 16 16 16 17 18 19
ROOT
ATOM      1  C   UNL     1      52.384  53.321  19.486  1.00  0.00    +0.143 C 
ATOM      2  N   UNL     1      51.590  53.691  20.660  1.00  0.00    -0.372 N 
ENDROOT
BRANCH   2   3
ATOM      3  C   UNL     1      51.065  52.565  21.482  1.00  0.00    +0.144 C 
BRANCH   3   4
ATOM      4  C   UNL     1      51.503  51.164  21.023  1.00  0.00    +0.177 C 
BRANCH   4   5
ATOM      5  O   UNL     1      52.673  50.715  21.709  1.00  0.00    -0.395 OA
ATOM      6  H   UNL     1      52.454  49.867  22.132  1.00  0.00    +0.210 HD
ENDBRANCH   4   5
ENDBRANCH   3   4
ENDBRANCH   2   3
BRANCH   2   7
ATOM      7  C   UNL     1      50.651  54.735  20.492  1.00  0.00    +0.048 A 
ATOM      8  C   UNL     1      49.604  54.603  19.554  1.00  0.00    +0.034 A 
ATOM      9  C   UNL     1      50.701  55.930  21.267  1.00  0.00    +0.050 A 
ATOM     10  C   UNL     1      48.631  55.591  19.387  1.00  0.00    +0.088 A 
ATOM     11  C   UNL     1      49.713  56.922  21.097  1.00  0.00    +0.099 A 
ATOM     12  C   UNL     1      48.688  56.747  20.164  1.00  0.00    +0.270 A 
BRANCH   9  13
ATOM     13  C   UNL     1      51.818  56.247  22.241  1.00  0.00    +0.172 C 
ATOM     14  N   UNL     1      52.835  56.951  21.820  1.00  0.00    -0.071 NA
ATOM     15  N   UNL     1      51.772  55.766  23.524  1.00  0.00    -0.380 N 
ATOM     16  H   UNL     1      52.697  55.712  23.935  1.00  0.00    +0.158 HD
ATOM     17  H   UNL     1      51.195  54.933  23.630  1.00  0.00    +0.158 HD
BRANCH  14  18
ATOM     18  O   UNL     1      53.798  57.111  22.831  1.00  0.00    -0.409 OA
ATOM     19  H   UNL     1      53.789  56.235  23.258  1.00  0.00    +0.330 HD
ENDBRANCH  14  18
ENDBRANCH   9  13
BRANCH  12  20
ATOM     20  N   UNL     1      47.665  57.788  19.995  1.00  0.00    +0.062 N 
ATOM     21  O   UNL     1      47.516  58.267  18.862  1.00  0.00    -0.258 OA
ATOM     22  O   UNL     1      47.011  58.124  20.991  1.00  0.00    -0.258 OA
ENDBRANCH  12  20
ENDBRANCH   2   7
TORSDOF 7
ENDMDL
MODEL 3
REMARK VINA RESULT:    -6.355      2.342      5.089
REMARK INTER + INTRA:          -9.488
REMARK INTER:                  -8.700
REMARK INTRA:                  -0.787
REMARK UNBOUND:                -0.904
REMARK SMILES CN(CCO)c1ccc([N+](=O)[O-])cc1/C(N)=N/O
REMARK SMILES IDX 1 1 2 2 3 3 4 4 5 5 6 7 7 8 14 9 8 10 13 11 9 12 15 13 17 14
REMARK SMILES IDX 16 15 18 18 10 20 11 21 12 22
REMARK H PARENT 5 6 16 16 16 17 18 19
ROOT
ATOM      1  C   UNL     1      50.135  53.850  20.689  1.00  0.00    +0.143 C 
ATOM      2  N   UNL     1      50.857  53.087  19.667  1.00  0.00    -0.372 N 
ENDROOT
BRANCH   2   3
ATOM      3  C   UNL     1      51.784  53.864  18.797  1.00  0.00    +0.144 C 
BRANCH   3   4
ATOM      4  C   UNL     1      53.164  53.221  18.577  1.00  0.00    +0.177 C 
BRANCH   4   5
ATOM      5  O   UNL     1      53.189  52.388  17.417  1.00  0.00    -0.395 OA
ATOM      6  H   UNL     1      54.071  52.476  17.015  1.00  0.00    +0.210 HD
ENDBRANCH   4   5
ENDBRANCH   3   4
ENDBRANCH   2   3
BRANCH   2   7
ATOM      7  C   UNL     1      50.118  52.115  18.955  1.00  0.00    +0.048 A 
ATOM      8  C   UNL     1      49.034  52.507  18.139  1.00  0.00    +0.034 A 
ATOM      9  C   UNL     1      50.444  50.729  19.005  1.00  0.00    +0.050 A 
ATOM     10  C   UNL     1      48.305  51.585  17.386  1.00  0.00    +0.088 A 
ATOM     11  C   UNL     1      49.706  49.803  18.238  1.00  0.00    +0.099 A 
ATOM     12  C   UNL     1      48.647  50.234  17.436  1.00  0.00    +0.270 A 
BRANCH   9  13
ATOM     13  C   UNL     1      51.518  50.156  19.908  1.00  0.00    +0.172 C 
ATOM     14  N   UNL     1      52.677  49.851  19.387  1.00  0.00    -0.071 NA
ATOM     15  N   UNL     1      51.256  49.930  21.235  1.00  0.00    -0.380 N 
ATOM     16  H   UNL     1      51.873  49.226  21.622  1.00  0.00    +0.158 HD
ATOM     17  H   UNL     1      50.265  49.808  21.442  1.00  0.00    +0.158 HD
BRANCH  14  18
ATOM     18  O   UNL     1      53.535  49.289  20.348  1.00  0.00    -0.409 OA
ATOM     19  H   UNL     1      53.208  48.373  20.400  1.00  0.00    +0.330 HD
ENDBRANCH  14  18
ENDBRANCH   9  13
BRANCH  12  20
ATOM     20  N   UNL     1      47.885  49.261  16.642  1.00  0.00    +0.062 N 
ATOM     21  O   UNL     1      46.686  49.498  16.439  1.00  0.00    -0.258 OA
ATOM     22  O   UNL     1      48.483  48.261  16.221  1.00  0.00    -0.258 OA
ENDBRANCH  12  20
ENDBRANCH   2   7
TORSDOF 7
ENDMDL
MODEL 4
REMARK VINA RESULT:    -5.823      1.763      2.089
REMARK INTER + INTRA:          -8.770
REMARK INTER:                  -8.478
REMARK INTRA:                  -0.292
REMARK UNBOUND:                -0.904
REMARK SMILES CN(CCO)c1ccc([N+](=O)[O-])cc1/C(N)=N/O
REMARK SMILES IDX 1 1 2 2 3 3 4 4 5 5 6 7 7 8 14 9 8 10 13 11 9 12 15 13 17 14
REMARK SMILES IDX 16 15 18 18 10 20 11 21 12 22
REMARK H PARENT 5 6 16 16 16 17 18 19
ROOT
ATOM      1  C   UNL     1      48.581  52.428  16.799  1.00  0.00    +0.143 C 
ATOM      2  N   UNL     1      49.493  51.788  17.751  1.00  0.00    -0.372 N 
ENDROOT
BRANCH   2   3
ATOM      3  C   UNL     1      49.018  50.515  18.363  1.00  0.00    +0.144 C 
BRANCH   3   4
ATOM      4  C   UNL     1      47.789  49.886  17.686  1.00  0.00    +0.177 C 
BRANCH   4   5
ATOM      5  O   UNL     1      47.165  48.903  18.513  1.00  0.00    -0.395 OA
ATOM      6  H   UNL     1      46.333  48.643  18.080  1.00  0.00    +0.210 HD
ENDBRANCH   4   5
ENDBRANCH   3   4
ENDBRANCH   2   3
BRANCH   2   7
ATOM      7  C   UNL     1      50.147  52.634  18.676  1.00  0.00    +0.048 A 
ATOM      8  C   UNL     1      49.478  53.762  19.198  1.00  0.00    +0.034 A 
ATOM      9  C   UNL     1      51.470  52.375  19.134  1.00  0.00    +0.050 A 
ATOM     10  C   UNL     1      50.071  54.600  20.146  1.00  0.00    +0.088 A 
ATOM     11  C   UNL     1      52.062  53.222  20.095  1.00  0.00    +0.099 A 
ATOM     12  C   UNL     1      51.362  54.322  20.594  1.00  0.00    +0.270 A 
BRANCH   9  13
ATOM     13  C   UNL     1      52.338  51.258  18.590  1.00  0.00    +0.172 C 
ATOM     14  N   UNL     1      52.618  50.246  19.369  1.00  0.00    -0.071 NA
ATOM     15  N   UNL     1      52.847  51.335  17.319  1.00  0.00    -0.380 N 
ATOM     16  H   UNL     1      53.677  50.764  17.214  1.00  0.00    +0.158 HD
ATOM     17  H   UNL     1      52.922  52.288  16.965  1.00  0.00    +0.158 HD
BRANCH  14  18
ATOM     18  O   UNL     1      53.468  49.330  18.728  1.00  0.00    -0.409 OA
ATOM     19  H   UNL     1      54.316  49.491  19.180  1.00  0.00    +0.330 HD
ENDBRANCH  14  18
ENDBRANCH   9  13
BRANCH  12  20
ATOM     20  N   UNL     1      51.989  55.198  21.593  1.00  0.00    +0.062 N 
ATOM     21  O   UNL     1      52.645  56.164  21.179  1.00  0.00    -0.258 OA
ATOM     22  O   UNL     1      51.824  54.923  22.789  1.00  0.00    -0.258 OA
ENDBRANCH  12  20
ENDBRANCH   2   7
TORSDOF 7
ENDMDL
MODEL 5
REMARK VINA RESULT:    -5.799      2.663      3.495
REMARK INTER + INTRA:          -8.737
REMARK INTER:                  -8.555
REMARK INTRA:                  -0.183
REMARK UNBOUND:                -0.904
REMARK SMILES CN(CCO)c1ccc([N+](=O)[O-])cc1/C(N)=N/O
REMARK SMILES IDX 1 1 2 2 3 3 4 4 5 5 6 7 7 8 14 9 8 10 13 11 9 12 15 13 17 14
REMARK SMILES IDX 16 15 18 18 10 20 11 21 12 22
REMARK H PARENT 5 6 16 16 16 17 18 19
ROOT
ATOM      1  C   UNL     1      48.168  47.664  16.772  1.00  0.00    +0.143 C 
ATOM      2  N   UNL     1      47.914  48.481  17.961  1.00  0.00    -0.372 N 
ENDROOT
BRANCH   2   3
ATOM      3  C   UNL     1      46.649  48.198  18.697  1.00  0.00    +0.144 C 
BRANCH   3   4
ATOM      4  C   UNL     1      45.446  47.842  17.809  1.00  0.00    +0.177 C 
BRANCH   4   5
ATOM      5  O   UNL     1      44.756  46.682  18.279  1.00  0.00    -0.395 OA
ATOM      6  H   UNL     1      45.333  46.244  18.929  1.00  0.00    +0.210 HD
ENDBRANCH   4   5
ENDBRANCH   3   4
ENDBRANCH   2   3
BRANCH   2   7
ATOM      7  C   UNL     1      48.195  49.863  17.858  1.00  0.00    +0.048 A 
ATOM      8  C   UNL     1      47.306  50.717  17.169  1.00  0.00    +0.034 A 
ATOM      9  C   UNL     1      49.347  50.448  18.457  1.00  0.00    +0.050 A 
ATOM     10  C   UNL     1      47.522  52.093  17.081  1.00  0.00    +0.088 A 
ATOM     11  C   UNL     1      49.558  51.840  18.368  1.00  0.00    +0.099 A 
ATOM     12  C   UNL     1      48.648  52.651  17.685  1.00  0.00    +0.270 A 
BRANCH   9  13
ATOM     13  C   UNL     1      50.431  49.642  19.144  1.00  0.00    +0.172 C 
ATOM     14  N   UNL     1      50.092  48.838  20.117  1.00  0.00    -0.071 NA
ATOM     15  N   UNL     1      51.742  49.790  18.771  1.00  0.00    -0.380 N 
ATOM     16  H   UNL     1      52.375  49.517  19.515  1.00  0.00    +0.158 HD
ATOM     17  H   UNL     1      51.945  50.686  18.330  1.00  0.00    +0.158 HD
BRANCH  14  18
ATOM     18  O   UNL     1      51.219  48.208  20.673  1.00  0.00    -0.409 OA
ATOM     19  H   UNL     1      51.165  47.318  20.282  1.00  0.00    +0.330 HD
ENDBRANCH  14  18
ENDBRANCH   9  13
BRANCH  12  20
ATOM     20  N   UNL     1      48.879  54.099  17.598  1.00  0.00    +0.062 N 
ATOM     21  O   UNL     1      48.237  54.733  16.747  1.00  0.00    -0.258 OA
ATOM     22  O   UNL     1      49.698  54.603  18.378  1.00  0.00    -0.258 OA
ENDBRANCH  12  20
ENDBRANCH   2   7
TORSDOF 7
ENDMDL
