MODEL 1
REMARK VINA RESULT:    -6.792      0.000      0.000
REMARK INTER + INTRA:          -9.084
REMARK INTER:                  -8.579
REMARK INTRA:                  -0.504
REMARK UNBOUND:                -0.504
REMARK SMILES CS(=O)(=O)N[C@@H]1CCCN(C(=O)[C@@H]2C[C@@H]2[NH3+])C1
REMARK SMILES IDX 6 1 7 2 8 3 9 4 10 5 17 6 5 7 2 9 3 10 4 11 1 12 11 13 12 14
REMARK SMILES IDX 13 15 14 16 15 17 16 18
REMARK H PARENT 5 8 16 19 16 20 16 21
ROOT
ATOM      1  C   UNL     1      51.688  56.224  21.472  1.00  0.00    +0.089 C 
ATOM      2  C   UNL     1      50.448  57.120  21.309  1.00  0.00    +0.024 C 
ATOM      3  C   UNL     1      49.203  56.343  20.858  1.00  0.00    +0.023 C 
ATOM      4  C   UNL     1      49.551  55.143  19.982  1.00  0.00    +0.119 C 
ATOM      5  N   UNL     1      50.501  54.233  20.625  1.00  0.00    -0.341 N 
ATOM      6  C   UNL     1      51.263  54.772  21.758  1.00  0.00    +0.139 C 
ENDROOT
BRANCH   1   7
ATOM      7  N   UNL     1      52.569  56.786  22.531  1.00  0.00    -0.211 NA
ATOM      8  H   UNL     1      52.988  56.065  23.126  1.00  0.00    +0.141 HD
BRANCH   7   9
ATOM      9  S   UNL     1      53.779  57.849  22.005  1.00  0.00    +0.209 S 
ATOM     10  O   UNL     1      54.992  57.537  22.730  1.00  0.00    -0.213 OA
ATOM     11  O   UNL     1      53.182  59.162  22.082  1.00  0.00    -0.213 OA
ATOM     12  C   UNL     1      53.959  57.365  20.302  1.00  0.00    +0.176 C 
ENDBRANCH   7   9
ENDBRANCH   1   7
BRANCH   5  13
ATOM     13  C   UNL     1      50.803  53.045  19.985  1.00  0.00    +0.231 C 
ATOM     14  O   UNL     1      50.044  52.456  19.218  1.00  0.00    -0.274 OA
BRANCH  13  15
ATOM     15  C   UNL     1      52.156  52.462  20.183  1.00  0.00    +0.142 C 
ATOM     16  C   UNL     1      52.475  51.129  19.545  1.00  0.00    +0.085 C 
ATOM     17  C   UNL     1      52.353  51.225  21.035  1.00  0.00    +0.194 C 
BRANCH  17  18
ATOM     18  N   UNL     1      51.177  50.592  21.649  1.00  0.00    -0.354 N 
ATOM     19  H   UNL     1      51.424  50.239  22.599  1.00  0.00    +0.344 HD
ATOM     20  H   UNL     1      50.391  51.244  21.752  1.00  0.00    +0.344 HD
ATOM     21  H   UNL     1      50.865  49.772  21.118  1.00  0.00    +0.344 HD
ENDBRANCH  17  18
ENDBRANCH  13  15
ENDBRANCH   5  13
TORSDOF 5
ENDMDL
MODEL 2
REMARK VINA RESULT:    -6.584      1.467      1.650
REMARK INTER + INTRA:          -8.821
REMARK INTER:                  -8.416
REMARK INTRA:                  -0.404
REMARK UNBOUND:                -0.504
REMARK SMILES CS(=O)(=O)N[C@@H]1CCCN(C(=O)[C@@H]2C[C@@H]2[NH3+])C1
REMARK SMILES IDX 6 1 7 2 8 3 9 4 10 5 17 6 5 7 2 9 3 10 4 11 1 12 11 13 12 14
REMARK SMILES IDX 13 15 14 16 15 17 16 18
REMARK H PARENT 5 8 16 19 16 20 16 21
ROOT
ATOM      1  C   UNL     1      51.851  55.917  21.532  1.00  0.00    +0.089 C 
ATOM      2  C   UNL     1      50.565  56.633  21.084  1.00  0.00    +0.024 C 
ATOM      3  C   UNL     1      49.444  55.660  20.691  1.00  0.00    +0.023 C 
ATOM      4  C   UNL     1      49.982  54.356  20.108  1.00  0.00    +0.119 C 
ATOM      5  N   UNL     1      50.931  53.689  21.001  1.00  0.00    -0.341 N 
ATOM      6  C   UNL     1      51.520  54.510  22.065  1.00  0.00    +0.139 C 
ENDROOT
BRANCH   1   7
ATOM      7  N   UNL     1      52.565  56.758  22.530  1.00  0.00    -0.211 NA
ATOM      8  H   UNL     1      52.987  56.210  23.285  1.00  0.00    +0.141 HD
BRANCH   7   9
ATOM      9  S   UNL     1      53.717  57.833  21.907  1.00  0.00    +0.209 S 
ATOM     10  O   UNL     1      54.968  57.593  22.595  1.00  0.00    -0.213 OA
ATOM     11  O   UNL     1      53.081  59.129  21.949  1.00  0.00    -0.213 OA
ATOM     12  C   UNL     1      53.846  57.277  20.221  1.00  0.00    +0.176 C 
ENDBRANCH   7   9
ENDBRANCH   1   7
BRANCH   5  13
ATOM     13  C   UNL     1      51.397  52.438  20.642  1.00  0.00    +0.231 C 
ATOM     14  O   UNL     1      52.299  51.838  21.223  1.00  0.00    -0.274 OA
BRANCH  13  15
ATOM     15  C   UNL     1      50.730  51.734  19.515  1.00  0.00    +0.142 C 
ATOM     16  C   UNL     1      51.294  50.412  19.046  1.00  0.00    +0.085 C 
ATOM     17  C   UNL     1      51.403  51.617  18.163  1.00  0.00    +0.194 C 
BRANCH  17  18
ATOM     18  N   UNL     1      52.743  52.194  17.986  1.00  0.00    -0.354 N 
ATOM     19  H   UNL     1      52.824  52.609  17.032  1.00  0.00    +0.344 HD
ATOM     20  H   UNL     1      52.944  52.934  18.668  1.00  0.00    +0.344 HD
ATOM     21  H   UNL     1      53.476  51.478  18.042  1.00  0.00    +0.344 HD
ENDBRANCH  17  18
ENDBRANCH  13  15
ENDBRANCH   5  13
TORSDOF 5
ENDMDL
MODEL 3
REMARK VINA RESULT:    -6.271      6.347      9.139
REMARK INTER + INTRA:          -8.426
REMARK INTER:                  -7.927
REMARK INTRA:                  -0.498
REMARK UNBOUND:                -0.504
REMARK SMILES CS(=O)(=O)N[C@@H]1CCCN(C(=O)[C@@H]2C[C@@H]2[NH3+])C1
REMARK SMILES IDX 6 1 7 2 8 3 9 4 10 5 17 6 5 7 2 9 3 10 4 11 1 12 11 13 12 14
REMARK SMILES IDX 13 15 14 16 15 17 16 18
REMARK H PARENT 5 8 16 19 16 20 16 21
ROOT
ATOM      1  C   UNL     1      47.627  48.841  16.581  1.00  0.00    +0.089 C 
ATOM      2  C   UNL     1      47.849  49.020  15.069  1.00  0.00    +0.024 C 
ATOM      3  C   UNL     1      49.261  49.515  14.726  1.00  0.00    +0.023 C 
ATOM      4  C   UNL     1      49.850  50.402  15.820  1.00  0.00    +0.119 C 
ATOM      5  N   UNL     1      49.855  49.751  17.131  1.00  0.00    -0.341 N 
ATOM      6  C   UNL     1      48.970  48.590  17.291  1.00  0.00    +0.139 C 
ENDROOT
BRANCH   1   7
ATOM      7  N   UNL     1      46.641  47.751  16.811  1.00  0.00    -0.211 NA
ATOM      8  H   UNL     1      46.993  47.020  17.436  1.00  0.00    +0.141 HD
BRANCH   7   9
ATOM      9  S   UNL     1      45.103  48.238  17.329  1.00  0.00    +0.209 S 
ATOM     10  O   UNL     1      44.130  47.704  16.400  1.00  0.00    -0.213 OA
ATOM     11  O   UNL     1      45.216  49.660  17.553  1.00  0.00    -0.213 OA
ATOM     12  C   UNL     1      44.970  47.389  18.888  1.00  0.00    +0.176 C 
ENDBRANCH   7   9
ENDBRANCH   1   7
BRANCH   5  13
ATOM     13  C   UNL     1      50.473  50.402  18.182  1.00  0.00    +0.231 C 
ATOM     14  O   UNL     1      51.230  51.363  18.055  1.00  0.00    -0.274 OA
BRANCH  13  15
ATOM     15  C   UNL     1      50.163  49.960  19.567  1.00  0.00    +0.142 C 
ATOM     16  C   UNL     1      50.884  50.619  20.721  1.00  0.00    +0.085 C 
ATOM     17  C   UNL     1      51.180  49.189  20.384  1.00  0.00    +0.194 C 
BRANCH  17  18
ATOM     18  N   UNL     1      52.494  48.902  19.791  1.00  0.00    -0.354 N 
ATOM     19  H   UNL     1      53.247  49.151  20.469  1.00  0.00    +0.344 HD
ATOM     20  H   UNL     1      52.606  47.912  19.548  1.00  0.00    +0.344 HD
ATOM     21  H   UNL     1      52.668  49.474  18.957  1.00  0.00    +0.344 HD
ENDBRANCH  17  18
ENDBRANCH  13  15
ENDBRANCH   5  13
TORSDOF 5
ENDMDL
MODEL 4
REMARK VINA RESULT:    -6.225      5.322      7.725
REMARK INTER + INTRA:          -8.367
REMARK INTER:                  -7.860
REMARK INTRA:                  -0.507
REMARK UNBOUND:                -0.504
REMARK SMILES CS(=O)(=O)N[C@@H]1CCCN(C(=O)[C@@H]2C[C@@H]2[NH3+])C1
REMARK SMILES IDX 6 1 7 2 8 3 9 4 10 5 17 6 5 7 2 9 3 10 4 11 1 12 11 13 12 14
REMARK SMILES IDX 13 15 14 16 15 17 16 18
REMARK H PARENT 5 8 16 19 16 20 16 21
ROOT
ATOM      1  C   UNL     1      48.106  50.794  17.414  1.00  0.00    +0.089 C 
ATOM      2  C   UNL     1      47.331  52.044  16.962  1.00  0.00    +0.024 C 
ATOM      3  C   UNL     1      48.207  53.303  16.905  1.00  0.00    +0.023 C 
ATOM      4  C   UNL     1      49.327  53.281  17.941  1.00  0.00    +0.119 C 
ATOM      5  N   UNL     1      50.166  52.085  17.838  1.00  0.00    -0.341 N 
ATOM      6  C   UNL     1      49.604  50.951  17.095  1.00  0.00    +0.139 C 
ENDROOT
BRANCH   1   7
ATOM      7  N   UNL     1      47.507  49.586  16.786  1.00  0.00    -0.211 NA
ATOM      8  H   UNL     1      48.207  48.961  16.373  1.00  0.00    +0.141 HD
BRANCH   7   9
ATOM      9  S   UNL     1      46.458  48.683  17.763  1.00  0.00    +0.209 S 
ATOM     10  O   UNL     1      45.131  49.245  17.632  1.00  0.00    -0.213 OA
ATOM     11  O   UNL     1      47.113  48.612  19.049  1.00  0.00    -0.213 OA
ATOM     12  C   UNL     1      46.515  47.092  16.968  1.00  0.00    +0.176 C 
ENDBRANCH   7   9
ENDBRANCH   1   7
BRANCH   5  13
ATOM     13  C   UNL     1      51.289  52.004  18.641  1.00  0.00    +0.231 C 
ATOM     14  O   UNL     1      52.311  52.666  18.475  1.00  0.00    -0.274 OA
BRANCH  13  15
ATOM     15  C   UNL     1      51.247  51.103  19.823  1.00  0.00    +0.142 C 
ATOM     16  C   UNL     1      52.413  51.109  20.785  1.00  0.00    +0.085 C 
ATOM     17  C   UNL     1      52.172  49.907  19.923  1.00  0.00    +0.194 C 
BRANCH  17  18
ATOM     18  N   UNL     1      53.132  49.661  18.838  1.00  0.00    -0.354 N 
ATOM     19  H   UNL     1      54.051  49.373  19.240  1.00  0.00    +0.344 HD
ATOM     20  H   UNL     1      52.822  48.919  18.201  1.00  0.00    +0.344 HD
ATOM     21  H   UNL     1      53.319  50.512  18.296  1.00  0.00    +0.344 HD
ENDBRANCH  17  18
ENDBRANCH  13  15
ENDBRANCH   5  13
TORSDOF 5
ENDMDL
MODEL 5
REMARK VINA RESULT:    -5.921      2.081      2.620
REMARK INTER + INTRA:          -7.983
REMARK INTER:                  -7.533
REMARK INTRA:                  -0.450
REMARK UNBOUND:                -0.504
REMARK SMILES CS(=O)(=O)N[C@@H]1CCCN(C(=O)[C@@H]2C[C@@H]2[NH3+])C1
REMARK SMILES IDX 6 1 7 2 8 3 9 4 10 5 17 6 5 7 2 9 3 10 4 11 1 12 11 13 12 14
REMARK SMILES IDX 13 15 14 16 15 17 16 18
REMARK H PARENT 5 8 16 19 16 20 16 21
ROOT
ATOM      1  C   UNL     1      50.231  54.961  19.979  1.00  0.00    +0.089 C 
ATOM      2  C   UNL     1      49.042  55.187  19.029  1.00  0.00    +0.024 C 
ATOM      3  C   UNL     1      48.612  53.910  18.294  1.00  0.00    +0.023 C 
ATOM      4  C   UNL     1      49.781  52.961  18.041  1.00  0.00    +0.119 C 
ATOM      5  N   UNL     1      50.499  52.612  19.269  1.00  0.00    -0.341 N 
ATOM      6  C   UNL     1      50.283  53.489  20.427  1.00  0.00    +0.139 C 
ENDROOT
BRANCH   1   7
ATOM      7  N   UNL     1      50.139  55.908  21.122  1.00  0.00    -0.211 NA
ATOM      8  H   UNL     1      49.623  55.523  21.919  1.00  0.00    +0.141 HD
BRANCH   7   9
ATOM      9  S   UNL     1      51.604  56.560  21.667  1.00  0.00    +0.209 S 
ATOM     10  O   UNL     1      52.088  55.730  22.749  1.00  0.00    -0.213 OA
ATOM     11  O   UNL     1      51.336  57.965  21.870  1.00  0.00    -0.213 OA
ATOM     12  C   UNL     1      52.642  56.344  20.237  1.00  0.00    +0.176 C 
ENDBRANCH   7   9
ENDBRANCH   1   7
BRANCH   5  13
ATOM     13  C   UNL     1      51.502  51.665  19.192  1.00  0.00    +0.231 C 
ATOM     14  O   UNL     1      52.694  51.896  19.390  1.00  0.00    -0.274 OA
BRANCH  13  15
ATOM     15  C   UNL     1      51.122  50.256  18.909  1.00  0.00    +0.142 C 
ATOM     16  C   UNL     1      49.743  49.779  19.307  1.00  0.00    +0.085 C 
ATOM     17  C   UNL     1      50.945  49.256  20.033  1.00  0.00    +0.194 C 
BRANCH  17  18
ATOM     18  N   UNL     1      51.134  49.708  21.419  1.00  0.00    -0.354 N 
ATOM     19  H   UNL     1      50.749  50.671  21.531  1.00  0.00    +0.344 HD
ATOM     20  H   UNL     1      50.661  49.100  22.097  1.00  0.00    +0.344 HD
ATOM     21  H   UNL     1      52.128  49.774  21.665  1.00  0.00    +0.344 HD
ENDBRANCH  17  18
ENDBRANCH  13  15
ENDBRANCH   5  13
TORSDOF 5
ENDMDL
