MODEL 1
REMARK VINA RESULT:    -7.518      0.000      0.000
REMARK INTER + INTRA:         -11.666
REMARK INTER:                 -10.594
REMARK INTRA:                  -1.072
REMARK UNBOUND:                -1.072
REMARK SMILES CC(C)(C)[NH2+]CCc1nnc(CCC2CCCCC2)o1
REMARK SMILES IDX 7 1 6 2 5 3 2 6 1 7 3 8 4 9 8 10 9 11 20 12 10 13 11 14
REMARK SMILES IDX 12 15 13 16 14 17 15 18 19 19 16 20 18 21 17 22
REMARK H PARENT 5 4 5 5
ROOT
ATOM      1  C   UNL     1      50.708  49.112  20.551  1.00  0.00    +0.160 C 
ENDROOT
BRANCH   1   2
ATOM      2  C   UNL     1      49.754  49.003  19.355  1.00  0.00    +0.270 C 
BRANCH   2   3
ATOM      3  N   UNL     1      50.237  49.830  18.185  1.00  0.00    -0.342 N 
ATOM      4  H   UNL     1      50.781  49.233  17.547  1.00  0.00    +0.346 HD
ATOM      5  H   UNL     1      50.934  50.509  18.555  1.00  0.00    +0.346 HD
BRANCH   3   6
ATOM      6  C   UNL     1      49.229  50.618  17.372  1.00  0.00    +0.088 C 
ATOM      7  C   UNL     1      47.815  50.128  17.694  1.00  0.00    +0.078 C 
ATOM      8  C   UNL     1      49.550  50.477  15.884  1.00  0.00    +0.078 C 
ATOM      9  C   UNL     1      49.381  52.083  17.804  1.00  0.00    +0.078 C 
ENDBRANCH   3   6
ENDBRANCH   2   3
ENDBRANCH   1   2
BRANCH   1  10
ATOM     10  C   UNL     1      51.369  50.433  20.574  1.00  0.00    +0.222 A 
ATOM     11  N   UNL     1      52.394  50.829  19.850  1.00  0.00    -0.113 NA
ATOM     12  O   UNL     1      50.904  51.388  21.428  1.00  0.00    -0.425 OA
ATOM     13  N   UNL     1      52.643  52.127  20.224  1.00  0.00    -0.113 NA
ATOM     14  C   UNL     1      51.758  52.429  21.156  1.00  0.00    +0.216 A 
BRANCH  14  15
ATOM     15  C   UNL     1      51.570  53.688  21.915  1.00  0.00    +0.099 C 
BRANCH  15  16
ATOM     16  C   UNL     1      51.413  54.882  20.971  1.00  0.00    +0.013 C 
BRANCH  16  17
ATOM     17  C   UNL     1      50.128  55.697  21.218  1.00  0.00    -0.011 C 
ATOM     18  C   UNL     1      49.267  55.705  19.943  1.00  0.00    +0.003 C 
ATOM     19  C   UNL     1      50.426  57.136  21.672  1.00  0.00    +0.003 C 
ATOM     20  C   UNL     1      47.993  56.528  20.118  1.00  0.00    +0.000 C 
ATOM     21  C   UNL     1      49.150  57.961  21.835  1.00  0.00    +0.000 C 
ATOM     22  C   UNL     1      48.303  57.950  20.567  1.00  0.00    +0.000 C 
ENDBRANCH  16  17
ENDBRANCH  15  16
ENDBRANCH  14  15
ENDBRANCH   1  10
TORSDOF 7
ENDMDL
MODEL 2
REMARK VINA RESULT:    -7.314      1.328      2.213
REMARK INTER + INTRA:         -11.379
REMARK INTER:                 -10.453
REMARK INTRA:                  -0.926
REMARK UNBOUND:                -1.072
REMARK SMILES CC(C)(C)[NH2+]CCc1nnc(CCC2CCCCC2)o1
REMARK SMILES IDX 7 1 6 2 5 3 2 6 1 7 3 8 4 9 8 10 9 11 20 12 10 13 11 14
REMARK SMILES IDX 12 15 13 16 14 17 15 18 19 19 16 20 18 21 17 22
REMARK H PARENT 5 4 5 5
ROOT
ATOM      1  C   UNL     1      51.171  49.770  20.423  1.00  0.00    +0.160 C 
ENDROOT
BRANCH   1   2
ATOM      2  C   UNL     1      49.861  49.155  19.916  1.00  0.00    +0.270 C 
BRANCH   2   3
ATOM      3  N   UNL     1      49.892  48.941  18.420  1.00  0.00    -0.342 N 
ATOM      4  H   UNL     1      50.437  48.094  18.208  1.00  0.00    +0.346 HD
ATOM      5  H   UNL     1      50.454  49.715  18.010  1.00  0.00    +0.346 HD
BRANCH   3   6
ATOM      6  C   UNL     1      48.585  48.882  17.656  1.00  0.00    +0.088 C 
ATOM      7  C   UNL     1      48.618  47.709  16.672  1.00  0.00    +0.078 C 
ATOM      8  C   UNL     1      48.350  50.212  16.938  1.00  0.00    +0.078 C 
ATOM      9  C   UNL     1      47.486  48.649  18.702  1.00  0.00    +0.078 C 
ENDBRANCH   3   6
ENDBRANCH   2   3
ENDBRANCH   1   2
BRANCH   1  10
ATOM     10  C   UNL     1      51.266  51.192  20.032  1.00  0.00    +0.222 A 
ATOM     11  N   UNL     1      52.280  52.009  20.223  1.00  0.00    -0.113 NA
ATOM     12  O   UNL     1      50.208  51.775  19.402  1.00  0.00    -0.425 OA
ATOM     13  N   UNL     1      51.898  53.216  19.690  1.00  0.00    -0.113 NA
ATOM     14  C   UNL     1      50.676  53.053  19.220  1.00  0.00    +0.216 A 
BRANCH  14  15
ATOM     15  C   UNL     1      49.778  54.025  18.550  1.00  0.00    +0.099 C 
BRANCH  15  16
ATOM     16  C   UNL     1      48.743  54.582  19.529  1.00  0.00    +0.013 C 
BRANCH  16  17
ATOM     17  C   UNL     1      49.016  56.040  19.950  1.00  0.00    -0.011 C 
ATOM     18  C   UNL     1      49.974  56.060  21.154  1.00  0.00    +0.003 C 
ATOM     19  C   UNL     1      47.724  56.806  20.280  1.00  0.00    +0.003 C 
ATOM     20  C   UNL     1      50.256  57.480  21.638  1.00  0.00    +0.000 C 
ATOM     21  C   UNL     1      48.010  58.223  20.775  1.00  0.00    +0.000 C 
ATOM     22  C   UNL     1      48.968  58.227  21.961  1.00  0.00    +0.000 C 
ENDBRANCH  16  17
ENDBRANCH  15  16
ENDBRANCH  14  15
ENDBRANCH   1  10
TORSDOF 7
ENDMDL
MODEL 3
REMARK VINA RESULT:    -7.230      2.070      3.270
REMARK INTER + INTRA:         -11.261
REMARK INTER:                 -10.521
REMARK INTRA:                  -0.740
REMARK UNBOUND:                -1.072
REMARK SMILES CC(C)(C)[NH2+]CCc1nnc(CCC2CCCCC2)o1
REMARK SMILES IDX 7 1 6 2 5 3 2 6 1 7 3 8 4 9 8 10 9 11 20 12 10 13 11 14
REMARK SMILES IDX 12 15 13 16 14 17 15 18 19 19 16 20 18 21 17 22
REMARK H PARENT 5 4 5 5
ROOT
ATOM      1  C   UNL     1      49.161  49.746  16.964  1.00  0.00    +0.160 C 
ENDROOT
BRANCH   1   2
ATOM      2  C   UNL     1      48.786  48.401  17.600  1.00  0.00    +0.270 C 
BRANCH   2   3
ATOM      3  N   UNL     1      47.579  48.532  18.500  1.00  0.00    -0.342 N 
ATOM      4  H   UNL     1      47.490  49.510  18.810  1.00  0.00    +0.346 HD
ATOM      5  H   UNL     1      47.787  48.006  19.373  1.00  0.00    +0.346 HD
BRANCH   3   6
ATOM      6  C   UNL     1      46.230  48.056  17.999  1.00  0.00    +0.088 C 
ATOM      7  C   UNL     1      45.473  49.229  17.370  1.00  0.00    +0.078 C 
ATOM      8  C   UNL     1      45.445  47.434  19.155  1.00  0.00    +0.078 C 
ATOM      9  C   UNL     1      46.520  46.993  16.931  1.00  0.00    +0.078 C 
ENDBRANCH   3   6
ENDBRANCH   2   3
ENDBRANCH   1   2
BRANCH   1  10
ATOM     10  C   UNL     1      49.658  50.687  17.989  1.00  0.00    +0.222 A 
ATOM     11  N   UNL     1      50.157  50.395  19.171  1.00  0.00    -0.113 NA
ATOM     12  O   UNL     1      49.613  52.025  17.732  1.00  0.00    -0.425 OA
ATOM     13  N   UNL     1      50.476  51.597  19.754  1.00  0.00    -0.113 NA
ATOM     14  C   UNL     1      50.142  52.537  18.892  1.00  0.00    +0.216 A 
BRANCH  14  15
ATOM     15  C   UNL     1      50.255  54.011  19.002  1.00  0.00    +0.099 C 
BRANCH  15  16
ATOM     16  C   UNL     1      48.934  54.632  19.461  1.00  0.00    +0.013 C 
BRANCH  16  17
ATOM     17  C   UNL     1      49.065  56.105  19.897  1.00  0.00    -0.011 C 
ATOM     18  C   UNL     1      49.977  56.200  21.132  1.00  0.00    +0.003 C 
ATOM     19  C   UNL     1      47.700  56.753  20.188  1.00  0.00    +0.003 C 
ATOM     20  C   UNL     1      50.118  57.636  21.631  1.00  0.00    +0.000 C 
ATOM     21  C   UNL     1      47.845  58.186  20.698  1.00  0.00    +0.000 C 
ATOM     22  C   UNL     1      48.760  58.265  21.915  1.00  0.00    +0.000 C 
ENDBRANCH  16  17
ENDBRANCH  15  16
ENDBRANCH  14  15
ENDBRANCH   1  10
TORSDOF 7
ENDMDL
MODEL 4
REMARK VINA RESULT:    -7.168      3.079      7.322
REMARK INTER + INTRA:         -11.174
REMARK INTER:                  -9.975
REMARK INTRA:                  -1.199
REMARK UNBOUND:                -1.072
REMARK SMILES CC(C)(C)[NH2+]CCc1nnc(CCC2CCCCC2)o1
REMARK SMILES IDX 7 1 6 2 5 3 2 6 1 7 3 8 4 9 8 10 9 11 20 12 10 13 11 14
REMARK SMILES IDX 12 15 13 16 14 17 15 18 19 19 16 20 18 21 17 22
REMARK H PARENT 5 4 5 5
ROOT
ATOM      1  C   UNL     1      48.136  57.276  20.672  1.00  0.00    +0.160 C 
ENDROOT
BRANCH   1   2
ATOM      2  C   UNL     1      49.418  57.492  21.485  1.00  0.00    +0.270 C 
BRANCH   2   3
ATOM      3  N   UNL     1      50.646  57.442  20.605  1.00  0.00    -0.342 N 
ATOM      4  H   UNL     1      50.881  58.394  20.294  1.00  0.00    +0.346 HD
ATOM      5  H   UNL     1      50.378  56.946  19.731  1.00  0.00    +0.346 HD
BRANCH   3   6
ATOM      6  C   UNL     1      51.903  56.779  21.131  1.00  0.00    +0.088 C 
ATOM      7  C   UNL     1      51.589  56.043  22.436  1.00  0.00    +0.078 C 
ATOM      8  C   UNL     1      52.994  57.833  21.328  1.00  0.00    +0.078 C 
ATOM      9  C   UNL     1      52.337  55.769  20.059  1.00  0.00    +0.078 C 
ENDBRANCH   3   6
ENDBRANCH   2   3
ENDBRANCH   1   2
BRANCH   1  10
ATOM     10  C   UNL     1      48.404  56.433  19.488  1.00  0.00    +0.222 A 
ATOM     11  N   UNL     1      48.355  56.790  18.223  1.00  0.00    -0.113 NA
ATOM     12  O   UNL     1      48.743  55.126  19.673  1.00  0.00    -0.425 OA
ATOM     13  N   UNL     1      48.682  55.669  17.500  1.00  0.00    -0.113 NA
ATOM     14  C   UNL     1      48.900  54.705  18.375  1.00  0.00    +0.216 A 
BRANCH  14  15
ATOM     15  C   UNL     1      49.275  53.288  18.153  1.00  0.00    +0.099 C 
BRANCH  15  16
ATOM     16  C   UNL     1      48.414  52.657  17.056  1.00  0.00    +0.013 C 
BRANCH  16  17
ATOM     17  C   UNL     1      48.279  51.127  17.185  1.00  0.00    -0.011 C 
ATOM     18  C   UNL     1      46.791  50.745  17.286  1.00  0.00    +0.003 C 
ATOM     19  C   UNL     1      49.057  50.569  18.388  1.00  0.00    +0.003 C 
ATOM     20  C   UNL     1      46.595  49.240  17.450  1.00  0.00    +0.000 C 
ATOM     21  C   UNL     1      48.850  49.065  18.556  1.00  0.00    +0.000 C 
ATOM     22  C   UNL     1      47.372  48.702  18.645  1.00  0.00    +0.000 C 
ENDBRANCH  16  17
ENDBRANCH  15  16
ENDBRANCH  14  15
ENDBRANCH   1  10
TORSDOF 7
ENDMDL
MODEL 5
REMARK VINA RESULT:    -7.099      2.010      6.751
REMARK INTER + INTRA:         -11.076
REMARK INTER:                 -10.335
REMARK INTRA:                  -0.741
REMARK UNBOUND:                -1.072
REMARK SMILES CC(C)(C)[NH2+]CCc1nnc(CCC2CCCCC2)o1
REMARK SMILES IDX 7 1 6 2 5 3 2 6 1 7 3 8 4 9 8 10 9 11 20 12 10 13 11 14
REMARK SMILES IDX 12 15 13 16 14 17 15 18 19 19 16 20 18 21 17 22
REMARK H PARENT 5 4 5 5
ROOT
ATOM      1  C   UNL     1      52.720  52.821  19.400  1.00  0.00    +0.160 C 
ENDROOT
BRANCH   1   2
ATOM      2  C   UNL     1      51.547  53.780  19.161  1.00  0.00    +0.270 C 
BRANCH   2   3
ATOM      3  N   UNL     1      50.886  54.180  20.461  1.00  0.00    -0.342 N 
ATOM      4  H   UNL     1      51.104  53.480  21.183  1.00  0.00    +0.346 HD
ATOM      5  H   UNL     1      49.859  54.093  20.323  1.00  0.00    +0.346 HD
BRANCH   3   6
ATOM      6  C   UNL     1      51.148  55.561  21.028  1.00  0.00    +0.088 C 
ATOM      7  C   UNL     1      52.161  56.295  20.145  1.00  0.00    +0.078 C 
ATOM      8  C   UNL     1      51.643  55.437  22.470  1.00  0.00    +0.078 C 
ATOM      9  C   UNL     1      49.803  56.300  20.997  1.00  0.00    +0.078 C 
ENDBRANCH   3   6
ENDBRANCH   2   3
ENDBRANCH   1   2
BRANCH   1  10
ATOM     10  C   UNL     1      52.233  51.440  19.596  1.00  0.00    +0.222 A 
ATOM     11  N   UNL     1      52.924  50.397  20.005  1.00  0.00    -0.113 NA
ATOM     12  O   UNL     1      50.926  51.158  19.334  1.00  0.00    -0.425 OA
ATOM     13  N   UNL     1      52.041  49.345  20.030  1.00  0.00    -0.113 NA
ATOM     14  C   UNL     1      50.878  49.817  19.626  1.00  0.00    +0.216 A 
BRANCH  14  15
ATOM     15  C   UNL     1      49.579  49.122  19.453  1.00  0.00    +0.099 C 
BRANCH  15  16
ATOM     16  C   UNL     1      48.822  49.667  18.240  1.00  0.00    +0.013 C 
BRANCH  16  17
ATOM     17  C   UNL     1      47.595  48.819  17.849  1.00  0.00    -0.011 C 
ATOM     18  C   UNL     1      46.635  49.662  16.991  1.00  0.00    +0.003 C 
ATOM     19  C   UNL     1      46.860  48.252  19.075  1.00  0.00    +0.003 C 
ATOM     20  C   UNL     1      45.382  48.883  16.601  1.00  0.00    +0.000 C 
ATOM     21  C   UNL     1      45.600  47.483  18.681  1.00  0.00    +0.000 C 
ATOM     22  C   UNL     1      44.665  48.328  17.825  1.00  0.00    +0.000 C 
ENDBRANCH  16  17
ENDBRANCH  15  16
ENDBRANCH  14  15
ENDBRANCH   1  10
TORSDOF 7
ENDMDL
