MODEL 1
REMARK VINA RESULT:    -6.572      0.000      0.000
REMARK INTER + INTRA:          -8.588
REMARK INTER:                  -8.301
REMARK INTRA:                  -0.288
REMARK UNBOUND:                -0.288
REMARK SMILES C[NH+](Cc1nnsc1N)CC1CCCCC1
REMARK SMILES IDX 3 1 2 2 1 3 10 5 11 6 12 7 16 8 13 9 15 10 14 11 4 12 8 13
REMARK SMILES IDX 5 14 7 15 6 16 9 17
REMARK H PARENT 2 4 9 18 9 19
ROOT
ATOM      1  C   UNL     1      52.221  53.405  19.857  1.00  0.00    +0.324 C 
ENDROOT
BRANCH   1   2
ATOM      2  N   UNL     1      51.442  54.374  20.744  1.00  0.00    -0.332 N 
ATOM      3  C   UNL     1      51.648  54.071  22.198  1.00  0.00    +0.333 C 
ATOM      4  H   UNL     1      50.453  54.185  20.537  1.00  0.00    +0.348 HD
BRANCH   2   5
ATOM      5  C   UNL     1      51.723  55.835  20.418  1.00  0.00    +0.265 C 
BRANCH   5   6
ATOM      6  C   UNL     1      50.422  56.651  20.372  1.00  0.00    +0.044 C 
ATOM      7  C   UNL     1      50.365  57.603  21.584  1.00  0.00    +0.009 C 
ATOM      8  C   UNL     1      49.169  55.766  20.336  1.00  0.00    +0.009 C 
ATOM      9  C   UNL     1      48.948  58.056  21.949  1.00  0.00    +0.001 C 
ATOM     10  C   UNL     1      47.891  56.598  20.181  1.00  0.00    +0.001 C 
ATOM     11  C   UNL     1      48.005  58.010  20.757  1.00  0.00    +0.000 C 
ENDBRANCH   5   6
ENDBRANCH   2   5
ENDBRANCH   1   2
BRANCH   1  12
ATOM     12  C   UNL     1      51.552  52.092  19.666  1.00  0.00    +0.153 A 
ATOM     13  C   UNL     1      51.689  50.952  20.448  1.00  0.00    +0.136 A 
ATOM     14  N   UNL     1      50.615  51.997  18.644  1.00  0.00    -0.135 NA
ATOM     15  S   UNL     1      50.557  49.801  19.838  1.00  0.00    +0.006 S 
ATOM     16  N   UNL     1      50.018  50.821  18.631  1.00  0.00    -0.088 NA
BRANCH  13  17
ATOM     17  N   UNL     1      52.488  50.718  21.521  1.00  0.00    -0.388 N 
ATOM     18  H   UNL     1      52.074  50.709  22.452  1.00  0.00    +0.157 HD
ATOM     19  H   UNL     1      53.347  51.275  21.556  1.00  0.00    +0.157 HD
ENDBRANCH  13  17
ENDBRANCH   1  12
TORSDOF 5
ENDMDL
MODEL 2
REMARK VINA RESULT:    -6.541      1.472      2.044
REMARK INTER + INTRA:          -8.549
REMARK INTER:                  -8.547
REMARK INTRA:                  -0.002
REMARK UNBOUND:                -0.288
REMARK SMILES C[NH+](Cc1nnsc1N)CC1CCCCC1
REMARK SMILES IDX 3 1 2 2 1 3 10 5 11 6 12 7 16 8 13 9 15 10 14 11 4 12 8 13
REMARK SMILES IDX 5 14 7 15 6 16 9 17
REMARK H PARENT 2 4 9 18 9 19
ROOT
ATOM      1  C   UNL     1      52.157  54.396  19.465  1.00  0.00    +0.324 C 
ENDROOT
BRANCH   1   2
ATOM      2  N   UNL     1      52.305  55.312  20.677  1.00  0.00    -0.332 N 
ATOM      3  C   UNL     1      52.893  56.637  20.295  1.00  0.00    +0.333 C 
ATOM      4  H   UNL     1      52.994  54.843  21.280  1.00  0.00    +0.348 HD
BRANCH   2   5
ATOM      5  C   UNL     1      51.012  55.465  21.469  1.00  0.00    +0.265 C 
BRANCH   5   6
ATOM      6  C   UNL     1      50.071  56.476  20.798  1.00  0.00    +0.044 C 
ATOM      7  C   UNL     1      49.641  57.545  21.824  1.00  0.00    +0.009 C 
ATOM      8  C   UNL     1      48.834  55.813  20.178  1.00  0.00    +0.009 C 
ATOM      9  C   UNL     1      48.337  58.262  21.463  1.00  0.00    +0.001 C 
ATOM     10  C   UNL     1      47.966  56.825  19.422  1.00  0.00    +0.001 C 
ATOM     11  C   UNL     1      48.071  58.250  19.965  1.00  0.00    +0.000 C 
ENDBRANCH   5   6
ENDBRANCH   2   5
ENDBRANCH   1   2
BRANCH   1  12
ATOM     12  C   UNL     1      52.221  52.948  19.792  1.00  0.00    +0.153 A 
ATOM     13  C   UNL     1      52.499  51.897  18.928  1.00  0.00    +0.136 A 
ATOM     14  N   UNL     1      52.069  52.590  21.126  1.00  0.00    -0.135 NA
ATOM     15  S   UNL     1      52.588  50.474  19.900  1.00  0.00    +0.006 S 
ATOM     16  N   UNL     1      52.239  51.295  21.311  1.00  0.00    -0.088 NA
BRANCH  13  17
ATOM     17  N   UNL     1      52.719  51.902  17.588  1.00  0.00    -0.388 N 
ATOM     18  H   UNL     1      53.274  51.153  17.176  1.00  0.00    +0.157 HD
ATOM     19  H   UNL     1      53.044  52.793  17.201  1.00  0.00    +0.157 HD
ENDBRANCH  13  17
ENDBRANCH   1  12
TORSDOF 5
ENDMDL
MODEL 3
REMARK VINA RESULT:    -6.403      4.942      7.025
REMARK INTER + INTRA:          -8.375
REMARK INTER:                  -7.979
REMARK INTRA:                  -0.396
REMARK UNBOUND:                -0.288
REMARK SMILES C[NH+](Cc1nnsc1N)CC1CCCCC1
REMARK SMILES IDX 3 1 2 2 1 3 10 5 11 6 12 7 16 8 13 9 15 10 14 11 4 12 8 13
REMARK SMILES IDX 5 14 7 15 6 16 9 17
REMARK H PARENT 2 4 9 18 9 19
ROOT
ATOM      1  C   UNL     1      50.139  50.614  17.107  1.00  0.00    +0.324 C 
ENDROOT
BRANCH   1   2
ATOM      2  N   UNL     1      48.650  50.909  17.269  1.00  0.00    -0.332 N 
ATOM      3  C   UNL     1      48.381  52.383  17.281  1.00  0.00    +0.333 C 
ATOM      4  H   UNL     1      48.410  50.554  18.204  1.00  0.00    +0.348 HD
BRANCH   2   5
ATOM      5  C   UNL     1      47.785  50.176  16.250  1.00  0.00    +0.265 C 
BRANCH   5   6
ATOM      6  C   UNL     1      46.563  49.534  16.922  1.00  0.00    +0.044 C 
ATOM      7  C   UNL     1      46.972  48.947  18.289  1.00  0.00    +0.009 C 
ATOM      8  C   UNL     1      45.912  48.448  16.055  1.00  0.00    +0.009 C 
ATOM      9  C   UNL     1      46.032  47.850  18.798  1.00  0.00    +0.001 C 
ATOM     10  C   UNL     1      44.633  47.900  16.698  1.00  0.00    +0.001 C 
ATOM     11  C   UNL     1      44.629  47.983  18.225  1.00  0.00    +0.000 C 
ENDBRANCH   5   6
ENDBRANCH   2   5
ENDBRANCH   1   2
BRANCH   1  12
ATOM     12  C   UNL     1      50.902  50.653  18.382  1.00  0.00    +0.153 A 
ATOM     13  C   UNL     1      52.070  51.356  18.648  1.00  0.00    +0.136 A 
ATOM     14  N   UNL     1      50.358  49.980  19.469  1.00  0.00    -0.135 NA
ATOM     15  S   UNL     1      52.399  51.142  20.328  1.00  0.00    +0.006 S 
ATOM     16  N   UNL     1      51.068  50.162  20.566  1.00  0.00    -0.088 NA
BRANCH  13  17
ATOM     17  N   UNL     1      52.835  52.122  17.828  1.00  0.00    -0.388 N 
ATOM     18  H   UNL     1      52.863  51.906  16.833  1.00  0.00    +0.157 HD
ATOM     19  H   UNL     1      53.794  52.284  18.150  1.00  0.00    +0.157 HD
ENDBRANCH  13  17
ENDBRANCH   1  12
TORSDOF 5
ENDMDL
MODEL 4
REMARK VINA RESULT:    -6.195      3.492      5.981
REMARK INTER + INTRA:          -8.112
REMARK INTER:                  -7.680
REMARK INTRA:                  -0.432
REMARK UNBOUND:                -0.288
REMARK SMILES C[NH+](Cc1nnsc1N)CC1CCCCC1
REMARK SMILES IDX 3 1 2 2 1 3 10 5 11 6 12 7 16 8 13 9 15 10 14 11 4 12 8 13
REMARK SMILES IDX 5 14 7 15 6 16 9 17
REMARK H PARENT 2 4 9 18 9 19
ROOT
ATOM      1  C   UNL     1      50.926  51.237  20.685  1.00  0.00    +0.324 C 
ENDROOT
BRANCH   1   2
ATOM      2  N   UNL     1      51.226  50.201  19.604  1.00  0.00    -0.332 N 
ATOM      3  C   UNL     1      52.567  49.564  19.813  1.00  0.00    +0.333 C 
ATOM      4  H   UNL     1      51.284  50.739  18.730  1.00  0.00    +0.348 HD
BRANCH   2   5
ATOM      5  C   UNL     1      50.118  49.167  19.449  1.00  0.00    +0.265 C 
BRANCH   5   6
ATOM      6  C   UNL     1      48.896  49.769  18.739  1.00  0.00    +0.044 C 
ATOM      7  C   UNL     1      47.797  48.695  18.598  1.00  0.00    +0.009 C 
ATOM      8  C   UNL     1      49.239  50.356  17.364  1.00  0.00    +0.009 C 
ATOM      9  C   UNL     1      46.792  48.981  17.479  1.00  0.00    +0.001 C 
ATOM     10  C   UNL     1      48.030  51.046  16.723  1.00  0.00    +0.001 C 
ATOM     11  C   UNL     1      46.686  50.466  17.166  1.00  0.00    +0.000 C 
ENDBRANCH   5   6
ENDBRANCH   2   5
ENDBRANCH   1   2
BRANCH   1  12
ATOM     12  C   UNL     1      51.322  52.622  20.318  1.00  0.00    +0.153 A 
ATOM     13  C   UNL     1      51.658  53.661  21.176  1.00  0.00    +0.136 A 
ATOM     14  N   UNL     1      51.459  52.907  18.965  1.00  0.00    -0.135 NA
ATOM     15  S   UNL     1      52.177  54.971  20.180  1.00  0.00    +0.006 S 
ATOM     16  N   UNL     1      51.906  54.131  18.762  1.00  0.00    -0.088 NA
BRANCH  13  17
ATOM     17  N   UNL     1      51.655  53.710  22.533  1.00  0.00    -0.388 N 
ATOM     18  H   UNL     1      50.776  53.880  23.020  1.00  0.00    +0.157 HD
ATOM     19  H   UNL     1      52.375  54.308  22.951  1.00  0.00    +0.157 HD
ENDBRANCH  13  17
ENDBRANCH   1  12
TORSDOF 5
ENDMDL
MODEL 5
REMARK VINA RESULT:    -6.113      3.906      6.248
REMARK INTER + INTRA:          -8.009
REMARK INTER:                  -7.771
REMARK INTRA:                  -0.238
REMARK UNBOUND:                -0.288
REMARK SMILES C[NH+](Cc1nnsc1N)CC1CCCCC1
REMARK SMILES IDX 3 1 2 2 1 3 10 5 11 6 12 7 16 8 13 9 15 10 14 11 4 12 8 13
REMARK SMILES IDX 5 14 7 15 6 16 9 17
REMARK H PARENT 2 4 9 18 9 19
ROOT
ATOM      1  C   UNL     1      52.388  50.426  19.230  1.00  0.00    +0.324 C 
ENDROOT
BRANCH   1   2
ATOM      2  N   UNL     1      51.073  49.675  19.038  1.00  0.00    -0.332 N 
ATOM      3  C   UNL     1      50.675  48.940  20.283  1.00  0.00    +0.333 C 
ATOM      4  H   UNL     1      51.275  48.964  18.324  1.00  0.00    +0.348 HD
BRANCH   2   5
ATOM      5  C   UNL     1      49.951  50.564  18.514  1.00  0.00    +0.265 C 
BRANCH   5   6
ATOM      6  C   UNL     1      49.092  49.819  17.482  1.00  0.00    +0.044 C 
ATOM      7  C   UNL     1      49.530  50.217  16.058  1.00  0.00    +0.009 C 
ATOM      8  C   UNL     1      47.590  50.078  17.664  1.00  0.00    +0.009 C 
ATOM      9  C   UNL     1      48.455  49.988  14.992  1.00  0.00    +0.001 C 
ATOM     10  C   UNL     1      46.749  49.241  16.695  1.00  0.00    +0.001 C 
ATOM     11  C   UNL     1      47.473  48.898  15.392  1.00  0.00    +0.000 C 
ENDBRANCH   5   6
ENDBRANCH   2   5
ENDBRANCH   1   2
BRANCH   1  12
ATOM     12  C   UNL     1      52.220  51.881  19.483  1.00  0.00    +0.153 A 
ATOM     13  C   UNL     1      51.950  52.502  20.695  1.00  0.00    +0.136 A 
ATOM     14  N   UNL     1      52.436  52.742  18.413  1.00  0.00    -0.135 NA
ATOM     15  S   UNL     1      52.022  54.202  20.401  1.00  0.00    +0.006 S 
ATOM     16  N   UNL     1      52.354  54.007  18.776  1.00  0.00    -0.088 NA
BRANCH  13  17
ATOM     17  N   UNL     1      51.714  51.966  21.919  1.00  0.00    -0.388 N 
ATOM     18  H   UNL     1      51.573  50.960  21.999  1.00  0.00    +0.157 HD
ATOM     19  H   UNL     1      50.990  52.436  22.471  1.00  0.00    +0.157 HD
ENDBRANCH  13  17
ENDBRANCH   1  12
TORSDOF 5
ENDMDL
