MODEL 1
REMARK VINA RESULT:    -6.989      0.000      0.000
REMARK INTER + INTRA:          -9.728
REMARK INTER:                  -9.031
REMARK INTRA:                  -0.696
REMARK UNBOUND:                -0.696
REMARK SMILES CCCN1C(=[NH2+])[C@@H](c2ccc(OC)cc2OC)[NH+]=C1C
REMARK SMILES IDX 4 1 19 2 18 3 7 4 5 5 6 6 20 7 3 11 2 12 1 13 8 14 9 15
REMARK SMILES IDX 15 16 10 17 14 18 11 19 16 20 17 21 12 22 13 23
REMARK H PARENT 18 8 6 9 6 10
ROOT
ATOM      1  N   UNL     1      47.149  47.750  17.077  1.00  0.00    -0.198 N 
ATOM      2  C   UNL     1      46.660  47.973  18.298  1.00  0.00    +0.250 C 
ATOM      3  N   UNL     1      47.526  48.526  19.132  1.00  0.00    -0.260 N 
ATOM      4  C   UNL     1      48.802  48.715  18.422  1.00  0.00    +0.321 C 
ATOM      5  C   UNL     1      48.430  48.155  17.049  1.00  0.00    +0.301 C 
ATOM      6  N   UNL     1      49.303  48.112  16.052  1.00  0.00    -0.287 N 
ATOM      7  C   UNL     1      45.291  47.650  18.720  1.00  0.00    +0.145 C 
ATOM      8  H   UNL     1      47.302  48.737  20.101  1.00  0.00    +0.306 HD
ATOM      9  H   UNL     1      50.254  48.475  16.180  1.00  0.00    +0.301 HD
ATOM     10  H   UNL     1      49.092  47.760  15.124  1.00  0.00    +0.301 HD
ENDROOT
BRANCH   1  11
ATOM     11  C   UNL     1      46.413  47.152  15.948  1.00  0.00    +0.246 C 
BRANCH  11  12
ATOM     12  C   UNL     1      45.809  48.262  15.098  1.00  0.00    +0.043 C 
ATOM     13  C   UNL     1      45.982  47.984  13.615  1.00  0.00    +0.008 C 
ENDBRANCH  11  12
ENDBRANCH   1  11
BRANCH   4  14
ATOM     14  C   UNL     1      49.230  50.160  18.388  1.00  0.00    +0.051 A 
ATOM     15  C   UNL     1      48.544  51.149  17.664  1.00  0.00    +0.016 A 
ATOM     16  C   UNL     1      50.382  50.534  19.109  1.00  0.00    +0.130 A 
ATOM     17  C   UNL     1      48.994  52.473  17.656  1.00  0.00    +0.047 A 
ATOM     18  C   UNL     1      50.831  51.854  19.084  1.00  0.00    +0.093 A 
ATOM     19  C   UNL     1      50.140  52.829  18.363  1.00  0.00    +0.122 A 
BRANCH  16  20
ATOM     20  O   UNL     1      51.032  49.508  19.760  1.00  0.00    -0.496 OA
ATOM     21  C   UNL     1      52.461  49.636  19.837  1.00  0.00    +0.278 C 
ENDBRANCH  16  20
BRANCH  19  22
ATOM     22  O   UNL     1      50.694  54.074  18.426  1.00  0.00    -0.497 OA
ATOM     23  C   UNL     1      51.904  54.225  19.163  1.00  0.00    +0.278 C 
ENDBRANCH  19  22
ENDBRANCH   4  14
TORSDOF 5
ENDMDL
MODEL 2
REMARK VINA RESULT:    -6.758      4.335      6.284
REMARK INTER + INTRA:          -9.429
REMARK INTER:                  -8.747
REMARK INTRA:                  -0.682
REMARK UNBOUND:                -0.696
REMARK SMILES CCCN1C(=[NH2+])[C@@H](c2ccc(OC)cc2OC)[NH+]=C1C
REMARK SMILES IDX 4 1 19 2 18 3 7 4 5 5 6 6 20 7 3 11 2 12 1 13 8 14 9 15
REMARK SMILES IDX 15 16 10 17 14 18 11 19 16 20 17 21 12 22 13 23
REMARK H PARENT 18 8 6 9 6 10
ROOT
ATOM      1  N   UNL     1      51.935  51.812  19.922  1.00  0.00    -0.198 N 
ATOM      2  C   UNL     1      51.298  51.482  21.047  1.00  0.00    +0.250 C 
ATOM      3  N   UNL     1      51.060  52.506  21.851  1.00  0.00    -0.260 N 
ATOM      4  C   UNL     1      51.603  53.725  21.227  1.00  0.00    +0.321 C 
ATOM      5  C   UNL     1      52.168  53.135  19.935  1.00  0.00    +0.301 C 
ATOM      6  N   UNL     1      52.782  53.889  19.034  1.00  0.00    -0.287 N 
ATOM      7  C   UNL     1      50.882  50.119  21.402  1.00  0.00    +0.145 C 
ATOM      8  H   UNL     1      50.600  52.405  22.752  1.00  0.00    +0.306 HD
ATOM      9  H   UNL     1      52.875  54.899  19.180  1.00  0.00    +0.301 HD
ATOM     10  H   UNL     1      53.160  53.538  18.159  1.00  0.00    +0.301 HD
ENDROOT
BRANCH   1  11
ATOM     11  C   UNL     1      52.324  50.882  18.846  1.00  0.00    +0.246 C 
BRANCH  11  12
ATOM     12  C   UNL     1      51.427  51.109  17.637  1.00  0.00    +0.043 C 
ATOM     13  C   UNL     1      50.004  50.647  17.905  1.00  0.00    +0.008 C 
ENDBRANCH  11  12
ENDBRANCH   1  11
BRANCH   4  14
ATOM     14  C   UNL     1      50.542  54.772  20.998  1.00  0.00    +0.051 A 
ATOM     15  C   UNL     1      49.391  54.545  20.227  1.00  0.00    +0.016 A 
ATOM     16  C   UNL     1      50.724  56.044  21.578  1.00  0.00    +0.130 A 
ATOM     17  C   UNL     1      48.446  55.559  20.036  1.00  0.00    +0.047 A 
ATOM     18  C   UNL     1      49.783  57.053  21.370  1.00  0.00    +0.093 A 
ATOM     19  C   UNL     1      48.640  56.815  20.603  1.00  0.00    +0.122 A 
BRANCH  16  20
ATOM     20  O   UNL     1      51.895  56.213  22.283  1.00  0.00    -0.496 OA
ATOM     21  C   UNL     1      52.787  57.212  21.764  1.00  0.00    +0.278 C 
ENDBRANCH  16  20
BRANCH  19  22
ATOM     22  O   UNL     1      47.810  57.892  20.483  1.00  0.00    -0.497 OA
ATOM     23  C   UNL     1      47.919  58.684  19.304  1.00  0.00    +0.278 C 
ENDBRANCH  19  22
ENDBRANCH   4  14
TORSDOF 5
ENDMDL
MODEL 3
REMARK VINA RESULT:    -6.738      2.884      6.540
REMARK INTER + INTRA:          -9.404
REMARK INTER:                  -8.880
REMARK INTRA:                  -0.524
REMARK UNBOUND:                -0.696
REMARK SMILES CCCN1C(=[NH2+])[C@@H](c2ccc(OC)cc2OC)[NH+]=C1C
REMARK SMILES IDX 4 1 19 2 18 3 7 4 5 5 6 6 20 7 3 11 2 12 1 13 8 14 9 15
REMARK SMILES IDX 15 16 10 17 14 18 11 19 16 20 17 21 12 22 13 23
REMARK H PARENT 18 8 6 9 6 10
ROOT
ATOM      1  N   UNL     1      51.336  51.802  19.261  1.00  0.00    -0.198 N 
ATOM      2  C   UNL     1      50.628  52.627  18.487  1.00  0.00    +0.250 C 
ATOM      3  N   UNL     1      50.045  52.032  17.458  1.00  0.00    -0.260 N 
ATOM      4  C   UNL     1      50.386  50.600  17.493  1.00  0.00    +0.321 C 
ATOM      5  C   UNL     1      51.259  50.563  18.747  1.00  0.00    +0.301 C 
ATOM      6  N   UNL     1      51.816  49.439  19.178  1.00  0.00    -0.287 N 
ATOM      7  C   UNL     1      50.482  54.069  18.719  1.00  0.00    +0.145 C 
ATOM      8  H   UNL     1      49.488  52.536  16.772  1.00  0.00    +0.306 HD
ATOM      9  H   UNL     1      51.654  48.557  18.680  1.00  0.00    +0.301 HD
ATOM     10  H   UNL     1      52.391  49.371  20.011  1.00  0.00    +0.301 HD
ENDROOT
BRANCH   1  11
ATOM     11  C   UNL     1      52.084  52.185  20.472  1.00  0.00    +0.246 C 
BRANCH  11  12
ATOM     12  C   UNL     1      51.108  52.384  21.623  1.00  0.00    +0.043 C 
ATOM     13  C   UNL     1      51.364  53.694  22.350  1.00  0.00    +0.008 C 
ENDBRANCH  11  12
ENDBRANCH   1  11
BRANCH   4  14
ATOM     14  C   UNL     1      49.163  49.722  17.584  1.00  0.00    +0.051 A 
ATOM     15  C   UNL     1      48.589  49.326  18.804  1.00  0.00    +0.016 A 
ATOM     16  C   UNL     1      48.576  49.267  16.386  1.00  0.00    +0.130 A 
ATOM     17  C   UNL     1      47.462  48.498  18.829  1.00  0.00    +0.047 A 
ATOM     18  C   UNL     1      47.460  48.431  16.422  1.00  0.00    +0.093 A 
ATOM     19  C   UNL     1      46.897  48.046  17.640  1.00  0.00    +0.122 A 
BRANCH  16  20
ATOM     20  O   UNL     1      49.215  49.655  15.229  1.00  0.00    -0.496 OA
ATOM     21  C   UNL     1      48.360  49.855  14.091  1.00  0.00    +0.278 C 
ENDBRANCH  16  20
BRANCH  19  22
ATOM     22  O   UNL     1      45.813  47.225  17.523  1.00  0.00    -0.497 OA
ATOM     23  C   UNL     1      44.522  47.825  17.537  1.00  0.00    +0.278 C 
ENDBRANCH  19  22
ENDBRANCH   4  14
TORSDOF 5
ENDMDL
MODEL 4
REMARK VINA RESULT:    -6.520      3.464      7.147
REMARK INTER + INTRA:          -9.122
REMARK INTER:                  -8.519
REMARK INTRA:                  -0.603
REMARK UNBOUND:                -0.696
REMARK SMILES CCCN1C(=[NH2+])[C@@H](c2ccc(OC)cc2OC)[NH+]=C1C
REMARK SMILES IDX 4 1 19 2 18 3 7 4 5 5 6 6 20 7 3 11 2 12 1 13 8 14 9 15
REMARK SMILES IDX 15 16 10 17 14 18 11 19 16 20 17 21 12 22 13 23
REMARK H PARENT 18 8 6 9 6 10
ROOT
ATOM      1  N   UNL     1      51.472  54.712  20.903  1.00  0.00    -0.198 N 
ATOM      2  C   UNL     1      51.987  54.896  19.686  1.00  0.00    +0.250 C 
ATOM      3  N   UNL     1      52.210  53.775  19.020  1.00  0.00    -0.260 N 
ATOM      4  C   UNL     1      51.812  52.640  19.871  1.00  0.00    +0.321 C 
ATOM      5  C   UNL     1      51.333  53.392  21.113  1.00  0.00    +0.301 C 
ATOM      6  N   UNL     1      50.876  52.755  22.182  1.00  0.00    -0.287 N 
ATOM      7  C   UNL     1      52.295  56.207  19.101  1.00  0.00    +0.145 C 
ATOM      8  H   UNL     1      52.617  53.757  18.089  1.00  0.00    +0.306 HD
ATOM      9  H   UNL     1      50.817  51.731  22.189  1.00  0.00    +0.301 HD
ATOM     10  H   UNL     1      50.537  53.217  23.020  1.00  0.00    +0.301 HD
ENDROOT
BRANCH   1  11
ATOM     11  C   UNL     1      51.119  55.776  21.862  1.00  0.00    +0.246 C 
BRANCH  11  12
ATOM     12  C   UNL     1      49.804  56.417  21.439  1.00  0.00    +0.043 C 
ATOM     13  C   UNL     1      49.783  57.902  21.754  1.00  0.00    +0.008 C 
ENDBRANCH  11  12
ENDBRANCH   1  11
BRANCH   4  14
ATOM     14  C   UNL     1      50.743  51.791  19.231  1.00  0.00    +0.051 A 
ATOM     15  C   UNL     1      49.786  52.302  18.339  1.00  0.00    +0.016 A 
ATOM     16  C   UNL     1      50.697  50.419  19.553  1.00  0.00    +0.130 A 
ATOM     17  C   UNL     1      48.807  51.470  17.785  1.00  0.00    +0.047 A 
ATOM     18  C   UNL     1      49.709  49.601  19.006  1.00  0.00    +0.093 A 
ATOM     19  C   UNL     1      48.763  50.120  18.119  1.00  0.00    +0.122 A 
BRANCH  16  20
ATOM     20  O   UNL     1      51.636  49.993  20.467  1.00  0.00    -0.496 OA
ATOM     21  C   UNL     1      52.759  49.290  19.913  1.00  0.00    +0.278 C 
ENDBRANCH  16  20
BRANCH  19  22
ATOM     22  O   UNL     1      47.857  49.206  17.666  1.00  0.00    -0.497 OA
ATOM     23  C   UNL     1      47.033  48.555  18.629  1.00  0.00    +0.278 C 
ENDBRANCH  19  22
ENDBRANCH   4  14
TORSDOF 5
ENDMDL
MODEL 5
REMARK VINA RESULT:    -6.380      2.632      3.771
REMARK INTER + INTRA:          -8.941
REMARK INTER:                  -8.382
REMARK INTRA:                  -0.560
REMARK UNBOUND:                -0.696
REMARK SMILES CCCN1C(=[NH2+])[C@@H](c2ccc(OC)cc2OC)[NH+]=C1C
REMARK SMILES IDX 4 1 19 2 18 3 7 4 5 5 6 6 20 7 3 11 2 12 1 13 8 14 9 15
REMARK SMILES IDX 15 16 10 17 14 18 11 19 16 20 17 21 12 22 13 23
REMARK H PARENT 18 8 6 9 6 10
ROOT
ATOM      1  N   UNL     1      48.088  50.854  17.362  1.00  0.00    -0.198 N 
ATOM      2  C   UNL     1      49.044  50.375  18.160  1.00  0.00    +0.250 C 
ATOM      3  N   UNL     1      50.031  51.227  18.391  1.00  0.00    -0.260 N 
ATOM      4  C   UNL     1      49.751  52.473  17.657  1.00  0.00    +0.321 C 
ATOM      5  C   UNL     1      48.420  52.105  17.001  1.00  0.00    +0.301 C 
ATOM      6  N   UNL     1      47.774  52.950  16.210  1.00  0.00    -0.287 N 
ATOM      7  C   UNL     1      49.042  49.030  18.751  1.00  0.00    +0.145 C 
ATOM      8  H   UNL     1      50.838  50.995  18.964  1.00  0.00    +0.306 HD
ATOM      9  H   UNL     1      48.152  53.888  16.035  1.00  0.00    +0.301 HD
ATOM     10  H   UNL     1      46.884  52.748  15.767  1.00  0.00    +0.301 HD
ENDROOT
BRANCH   1  11
ATOM     11  C   UNL     1      46.874  50.132  16.940  1.00  0.00    +0.246 C 
BRANCH  11  12
ATOM     12  C   UNL     1      47.171  49.349  15.668  1.00  0.00    +0.043 C 
ATOM     13  C   UNL     1      46.111  48.294  15.404  1.00  0.00    +0.008 C 
ENDBRANCH  11  12
ENDBRANCH   1  11
BRANCH   4  14
ATOM     14  C   UNL     1      49.662  53.668  18.572  1.00  0.00    +0.051 A 
ATOM     15  C   UNL     1      48.446  54.175  19.060  1.00  0.00    +0.016 A 
ATOM     16  C   UNL     1      50.857  54.316  18.945  1.00  0.00    +0.130 A 
ATOM     17  C   UNL     1      48.422  55.296  19.895  1.00  0.00    +0.047 A 
ATOM     18  C   UNL     1      50.821  55.442  19.767  1.00  0.00    +0.093 A 
ATOM     19  C   UNL     1      49.607  55.935  20.248  1.00  0.00    +0.122 A 
BRANCH  16  20
ATOM     20  O   UNL     1      52.009  53.796  18.395  1.00  0.00    -0.496 OA
ATOM     21  C   UNL     1      52.966  53.288  19.338  1.00  0.00    +0.278 C 
ENDBRANCH  16  20
BRANCH  19  22
ATOM     22  O   UNL     1      49.723  57.042  21.037  1.00  0.00    -0.497 OA
ATOM     23  C   UNL     1      48.552  57.820  21.264  1.00  0.00    +0.278 C 
ENDBRANCH  19  22
ENDBRANCH   4  14
TORSDOF 5
ENDMDL
