MODEL 1
REMARK VINA RESULT:    -9.155      0.000      0.000
REMARK INTER + INTRA:         -12.171
REMARK INTER:                 -11.831
REMARK INTRA:                  -0.341
REMARK UNBOUND:                -0.341
REMARK SMILES Cc1ccc(C(=O)NC2CC[NH+](CN3C(=O)N[C@](C)(C4CC4)C3=O)CC2)s1
REMARK SMILES IDX 9 1 10 2 11 3 12 4 25 5 26 6 8 8 6 9 7 10 5 12 2 13 3 14
REMARK SMILES IDX 27 15 4 16 1 17 13 18 14 19 23 20 15 21 24 22 18 23 17 24
REMARK SMILES IDX 16 25 19 26 20 28 21 29 22 30
REMARK H PARENT 12 7 8 11 17 27
ROOT
ATOM      1  C   UNL     1      49.405  50.915  17.983  1.00  0.00    +0.093 C 
ATOM      2  C   UNL     1      50.261  50.396  19.136  1.00  0.00    +0.086 C 
ATOM      3  C   UNL     1      51.528  51.223  19.293  1.00  0.00    +0.265 C 
ATOM      4  N   UNL     1      51.182  52.680  19.458  1.00  0.00    -0.317 N 
ATOM      5  C   UNL     1      50.343  53.211  18.323  1.00  0.00    +0.265 C 
ATOM      6  C   UNL     1      49.071  52.391  18.202  1.00  0.00    +0.086 C 
ATOM      7  H   UNL     1      50.630  52.801  20.325  1.00  0.00    +0.349 HD
ENDROOT
BRANCH   1   8
ATOM      8  N   UNL     1      48.207  50.117  17.823  1.00  0.00    -0.348 N 
ATOM      9  C   UNL     1      47.649  49.888  16.574  1.00  0.00    +0.261 C 
ATOM     10  O   UNL     1      48.163  50.374  15.568  1.00  0.00    -0.268 OA
ATOM     11  H   UNL     1      47.704  49.743  18.623  1.00  0.00    +0.164 HD
BRANCH   9  12
ATOM     12  C   UNL     1      46.453  49.062  16.546  1.00  0.00    +0.092 A 
ATOM     13  C   UNL     1      44.570  47.580  15.914  1.00  0.00    +0.002 A 
ATOM     14  C   UNL     1      44.490  47.994  17.227  1.00  0.00    +0.016 A 
ATOM     15  S   UNL     1      45.951  48.223  15.136  1.00  0.00    -0.135 S 
ATOM     16  C   UNL     1      45.576  48.842  17.592  1.00  0.00    +0.026 A 
ATOM     17  C   UNL     1      43.626  46.703  15.162  1.00  0.00    +0.056 C 
ENDBRANCH   9  12
ENDBRANCH   1   8
BRANCH   4  18
ATOM     18  C   UNL     1      52.401  53.537  19.684  1.00  0.00    +0.402 C 
BRANCH  18  19
ATOM     19  N   UNL     1      52.052  54.710  20.413  1.00  0.00    -0.213 N 
ATOM     20  C   UNL     1      51.978  55.968  19.887  1.00  0.00    +0.260 C 
ATOM     21  C   UNL     1      51.640  54.708  21.698  1.00  0.00    +0.329 C 
ATOM     22  O   UNL     1      52.339  56.258  18.756  1.00  0.00    -0.271 OA
ATOM     23  C   UNL     1      51.420  56.926  20.965  1.00  0.00    +0.121 C 
ATOM     24  N   UNL     1      51.276  55.977  22.052  1.00  0.00    -0.323 N 
ATOM     25  O   UNL     1      51.660  53.726  22.420  1.00  0.00    -0.248 OA
ATOM     26  C   UNL     1      52.466  57.985  21.303  1.00  0.00    +0.046 C 
ATOM     27  H   UNL     1      50.920  56.198  22.973  1.00  0.00    +0.166 HD
BRANCH  23  28
ATOM     28  C   UNL     1      50.073  57.539  20.686  1.00  0.00    +0.024 C 
ATOM     29  C   UNL     1      49.097  57.925  21.776  1.00  0.00    +0.007 C 
ATOM     30  C   UNL     1      48.784  56.768  20.860  1.00  0.00    +0.007 C 
ENDBRANCH  23  28
ENDBRANCH  18  19
ENDBRANCH   4  18
TORSDOF 5
ENDMDL
MODEL 2
REMARK VINA RESULT:    -8.571      2.758      9.431
REMARK INTER + INTRA:         -11.417
REMARK INTER:                 -11.105
REMARK INTRA:                  -0.312
REMARK UNBOUND:                -0.341
REMARK SMILES Cc1ccc(C(=O)NC2CC[NH+](CN3C(=O)N[C@](C)(C4CC4)C3=O)CC2)s1
REMARK SMILES IDX 9 1 10 2 11 3 12 4 25 5 26 6 8 8 6 9 7 10 5 12 2 13 3 14
REMARK SMILES IDX 27 15 4 16 1 17 13 18 14 19 23 20 15 21 24 22 18 23 17 24
REMARK SMILES IDX 16 25 19 26 20 28 21 29 22 30
REMARK H PARENT 12 7 8 11 17 27
ROOT
ATOM      1  C   UNL     1      49.712  52.746  17.647  1.00  0.00    +0.093 C 
ATOM      2  C   UNL     1      48.344  52.519  17.008  1.00  0.00    +0.086 C 
ATOM      3  C   UNL     1      48.423  51.481  15.900  1.00  0.00    +0.265 C 
ATOM      4  N   UNL     1      49.019  50.201  16.426  1.00  0.00    -0.317 N 
ATOM      5  C   UNL     1      50.375  50.405  17.053  1.00  0.00    +0.265 C 
ATOM      6  C   UNL     1      50.268  51.424  18.175  1.00  0.00    +0.086 C 
ATOM      7  H   UNL     1      48.400  49.816  17.160  1.00  0.00    +0.349 HD
ENDROOT
BRANCH   1   8
ATOM      8  N   UNL     1      49.640  53.747  18.691  1.00  0.00    -0.348 N 
ATOM      9  C   UNL     1      50.770  54.422  19.129  1.00  0.00    +0.261 C 
ATOM     10  O   UNL     1      51.869  54.170  18.639  1.00  0.00    -0.268 OA
ATOM     11  H   UNL     1      48.770  53.952  19.176  1.00  0.00    +0.164 HD
BRANCH   9  12
ATOM     12  C   UNL     1      50.564  55.411  20.175  1.00  0.00    +0.092 A 
ATOM     13  C   UNL     1      49.747  57.265  21.601  1.00  0.00    +0.002 A 
ATOM     14  C   UNL     1      50.877  56.667  22.119  1.00  0.00    +0.016 A 
ATOM     15  S   UNL     1      49.265  56.532  20.133  1.00  0.00    -0.135 S 
ATOM     16  C   UNL     1      51.343  55.597  21.301  1.00  0.00    +0.026 A 
ATOM     17  C   UNL     1      48.975  58.416  22.155  1.00  0.00    +0.056 C 
ENDBRANCH   9  12
ENDBRANCH   1   8
BRANCH   4  18
ATOM     18  C   UNL     1      49.058  49.114  15.382  1.00  0.00    +0.402 C 
BRANCH  18  19
ATOM     19  N   UNL     1      47.798  48.453  15.309  1.00  0.00    -0.213 N 
ATOM     20  C   UNL     1      47.249  47.698  16.306  1.00  0.00    +0.260 C 
ATOM     21  C   UNL     1      46.934  48.583  14.281  1.00  0.00    +0.329 C 
ATOM     22  O   UNL     1      47.839  47.386  17.329  1.00  0.00    -0.271 OA
ATOM     23  C   UNL     1      45.817  47.291  15.889  1.00  0.00    +0.121 C 
ATOM     24  N   UNL     1      45.781  47.914  14.581  1.00  0.00    -0.323 N 
ATOM     25  O   UNL     1      47.194  49.160  13.239  1.00  0.00    -0.248 OA
ATOM     26  C   UNL     1      45.729  45.772  15.770  1.00  0.00    +0.046 C 
ATOM     27  H   UNL     1      44.990  47.896  13.950  1.00  0.00    +0.166 HD
BRANCH  23  28
ATOM     28  C   UNL     1      44.691  47.853  16.717  1.00  0.00    +0.024 C 
ATOM     29  C   UNL     1      44.884  48.958  17.733  1.00  0.00    +0.007 C 
ATOM     30  C   UNL     1      44.553  47.560  18.193  1.00  0.00    +0.007 C 
ENDBRANCH  23  28
ENDBRANCH  18  19
ENDBRANCH   4  18
TORSDOF 5
ENDMDL
MODEL 3
REMARK VINA RESULT:    -8.161      3.643      8.973
REMARK INTER + INTRA:         -10.887
REMARK INTER:                 -10.655
REMARK INTRA:                  -0.232
REMARK UNBOUND:                -0.341
REMARK SMILES Cc1ccc(C(=O)NC2CC[NH+](CN3C(=O)N[C@](C)(C4CC4)C3=O)CC2)s1
REMARK SMILES IDX 9 1 10 2 11 3 12 4 25 5 26 6 8 8 6 9 7 10 5 12 2 13 3 14
REMARK SMILES IDX 27 15 4 16 1 17 13 18 14 19 23 20 15 21 24 22 18 23 17 24
REMARK SMILES IDX 16 25 19 26 20 28 21 29 22 30
REMARK H PARENT 12 7 8 11 17 27
ROOT
ATOM      1  C   UNL     1      49.196  54.179  17.844  1.00  0.00    +0.093 C 
ATOM      2  C   UNL     1      48.076  53.346  17.228  1.00  0.00    +0.086 C 
ATOM      3  C   UNL     1      48.629  52.104  16.547  1.00  0.00    +0.265 C 
ATOM      4  N   UNL     1      49.459  51.304  17.516  1.00  0.00    -0.317 N 
ATOM      5  C   UNL     1      50.576  52.110  18.129  1.00  0.00    +0.265 C 
ATOM      6  C   UNL     1      50.000  53.330  18.828  1.00  0.00    +0.086 C 
ATOM      7  H   UNL     1      48.856  50.982  18.293  1.00  0.00    +0.349 HD
ENDROOT
BRANCH   1   8
ATOM      8  N   UNL     1      48.671  55.372  18.478  1.00  0.00    -0.348 N 
ATOM      9  C   UNL     1      48.430  56.531  17.757  1.00  0.00    +0.261 C 
ATOM     10  O   UNL     1      48.672  56.572  16.552  1.00  0.00    -0.268 OA
ATOM     11  H   UNL     1      48.512  55.417  19.481  1.00  0.00    +0.164 HD
BRANCH   9  12
ATOM     12  C   UNL     1      47.893  57.655  18.507  1.00  0.00    +0.092 A 
ATOM     13  C   UNL     1      46.915  59.814  19.230  1.00  0.00    +0.002 A 
ATOM     14  C   UNL     1      47.236  59.003  20.298  1.00  0.00    +0.016 A 
ATOM     15  S   UNL     1      47.294  59.068  17.738  1.00  0.00    -0.135 S 
ATOM     16  C   UNL     1      47.794  57.760  19.882  1.00  0.00    +0.026 A 
ATOM     17  C   UNL     1      46.326  61.185  19.254  1.00  0.00    +0.056 C 
ENDBRANCH   9  12
ENDBRANCH   1   8
BRANCH   4  18
ATOM     18  C   UNL     1      49.977  50.025  16.909  1.00  0.00    +0.402 C 
BRANCH  18  19
ATOM     19  N   UNL     1      48.894  49.224  16.445  1.00  0.00    -0.213 N 
ATOM     20  C   UNL     1      47.985  48.594  17.245  1.00  0.00    +0.260 C 
ATOM     21  C   UNL     1      48.565  49.079  15.144  1.00  0.00    +0.329 C 
ATOM     22  O   UNL     1      48.075  48.529  18.461  1.00  0.00    -0.271 OA
ATOM     23  C   UNL     1      46.890  47.964  16.352  1.00  0.00    +0.121 C 
ATOM     24  N   UNL     1      47.415  48.346  15.056  1.00  0.00    -0.323 N 
ATOM     25  O   UNL     1      49.239  49.495  14.218  1.00  0.00    -0.248 OA
ATOM     26  C   UNL     1      46.904  46.446  16.517  1.00  0.00    +0.046 C 
ATOM     27  H   UNL     1      46.980  48.132  14.167  1.00  0.00    +0.166 HD
BRANCH  23  28
ATOM     28  C   UNL     1      45.502  48.529  16.491  1.00  0.00    +0.024 C 
ATOM     29  C   UNL     1      45.126  49.548  17.545  1.00  0.00    +0.007 C 
ATOM     30  C   UNL     1      44.585  48.143  17.630  1.00  0.00    +0.007 C 
ENDBRANCH  23  28
ENDBRANCH  18  19
ENDBRANCH   4  18
TORSDOF 5
ENDMDL
MODEL 4
REMARK VINA RESULT:    -7.519      4.088      8.526
REMARK INTER + INTRA:         -10.057
REMARK INTER:                  -9.646
REMARK INTRA:                  -0.411
REMARK UNBOUND:                -0.341
REMARK SMILES Cc1ccc(C(=O)NC2CC[NH+](CN3C(=O)N[C@](C)(C4CC4)C3=O)CC2)s1
REMARK SMILES IDX 9 1 10 2 11 3 12 4 25 5 26 6 8 8 6 9 7 10 5 12 2 13 3 14
REMARK SMILES IDX 27 15 4 16 1 17 13 18 14 19 23 20 15 21 24 22 18 23 17 24
REMARK SMILES IDX 16 25 19 26 20 28 21 29 22 30
REMARK H PARENT 12 7 8 11 17 27
ROOT
ATOM      1  C   UNL     1      49.217  57.302  20.407  1.00  0.00    +0.093 C 
ATOM      2  C   UNL     1      50.658  57.520  20.859  1.00  0.00    +0.086 C 
ATOM      3  C   UNL     1      51.191  56.302  21.598  1.00  0.00    +0.265 C 
ATOM      4  N   UNL     1      51.048  55.070  20.742  1.00  0.00    -0.317 N 
ATOM      5  C   UNL     1      49.628  54.835  20.293  1.00  0.00    +0.265 C 
ATOM      6  C   UNL     1      49.126  56.051  19.533  1.00  0.00    +0.086 C 
ATOM      7  H   UNL     1      51.621  55.183  19.888  1.00  0.00    +0.349 HD
ENDROOT
BRANCH   1   8
ATOM      8  N   UNL     1      48.704  58.469  19.718  1.00  0.00    -0.348 N 
ATOM      9  C   UNL     1      47.405  58.914  19.911  1.00  0.00    +0.261 C 
ATOM     10  O   UNL     1      46.652  58.310  20.673  1.00  0.00    -0.268 OA
ATOM     11  H   UNL     1      49.260  58.969  19.030  1.00  0.00    +0.164 HD
BRANCH   9  12
ATOM     12  C   UNL     1      47.015  60.102  19.170  1.00  0.00    +0.092 A 
ATOM     13  C   UNL     1      45.797  61.990  18.124  1.00  0.00    +0.002 A 
ATOM     14  C   UNL     1      47.132  61.975  17.779  1.00  0.00    +0.016 A 
ATOM     15  S   UNL     1      45.404  60.696  19.171  1.00  0.00    -0.135 S 
ATOM     16  C   UNL     1      47.834  60.892  18.384  1.00  0.00    +0.026 A 
ATOM     17  C   UNL     1      44.741  62.950  17.689  1.00  0.00    +0.056 C 
ENDBRANCH   9  12
ENDBRANCH   1   8
BRANCH   4  18
ATOM     18  C   UNL     1      51.622  53.843  21.403  1.00  0.00    +0.402 C 
BRANCH  18  19
ATOM     19  N   UNL     1      51.895  52.839  20.429  1.00  0.00    -0.213 N 
ATOM     20  C   UNL     1      51.481  51.540  20.504  1.00  0.00    +0.260 C 
ATOM     21  C   UNL     1      52.504  53.076  19.248  1.00  0.00    +0.329 C 
ATOM     22  O   UNL     1      50.946  51.049  21.486  1.00  0.00    -0.271 OA
ATOM     23  C   UNL     1      51.848  50.824  19.183  1.00  0.00    +0.121 C 
ATOM     24  N   UNL     1      52.503  51.928  18.508  1.00  0.00    -0.323 N 
ATOM     25  O   UNL     1      53.018  54.139  18.946  1.00  0.00    -0.248 OA
ATOM     26  C   UNL     1      52.838  49.698  19.467  1.00  0.00    +0.046 C 
ATOM     27  H   UNL     1      52.898  51.887  17.577  1.00  0.00    +0.166 HD
BRANCH  23  28
ATOM     28  C   UNL     1      50.698  50.357  18.330  1.00  0.00    +0.024 C 
ATOM     29  C   UNL     1      49.330  51.003  18.361  1.00  0.00    +0.007 C 
ATOM     30  C   UNL     1      49.518  49.610  18.908  1.00  0.00    +0.007 C 
ENDBRANCH  23  28
ENDBRANCH  18  19
ENDBRANCH   4  18
TORSDOF 5
ENDMDL
MODEL 5
REMARK VINA RESULT:    -7.151      4.673      8.783
REMARK INTER + INTRA:          -9.582
REMARK INTER:                  -9.475
REMARK INTRA:                  -0.107
REMARK UNBOUND:                -0.341
REMARK SMILES Cc1ccc(C(=O)NC2CC[NH+](CN3C(=O)N[C@](C)(C4CC4)C3=O)CC2)s1
REMARK SMILES IDX 9 1 10 2 11 3 12 4 25 5 26 6 8 8 6 9 7 10 5 12 2 13 3 14
REMARK SMILES IDX 27 15 4 16 1 17 13 18 14 19 23 20 15 21 24 22 18 23 17 24
REMARK SMILES IDX 16 25 19 26 20 28 21 29 22 30
REMARK H PARENT 12 7 8 11 17 27
ROOT
ATOM      1  C   UNL     1      48.332  58.537  19.646  1.00  0.00    +0.093 C 
ATOM      2  C   UNL     1      48.227  57.327  18.722  1.00  0.00    +0.086 C 
ATOM      3  C   UNL     1      49.482  56.470  18.797  1.00  0.00    +0.265 C 
ATOM      4  N   UNL     1      49.755  56.070  20.224  1.00  0.00    -0.317 N 
ATOM      5  C   UNL     1      49.868  57.254  21.149  1.00  0.00    +0.265 C 
ATOM      6  C   UNL     1      48.595  58.079  21.080  1.00  0.00    +0.086 C 
ATOM      7  H   UNL     1      48.970  55.490  20.568  1.00  0.00    +0.349 HD
ENDROOT
BRANCH   1   8
ATOM      8  N   UNL     1      47.144  59.362  19.561  1.00  0.00    -0.348 N 
ATOM      9  C   UNL     1      47.116  60.520  18.800  1.00  0.00    +0.261 C 
ATOM     10  O   UNL     1      48.118  60.878  18.183  1.00  0.00    -0.268 OA
ATOM     11  H   UNL     1      46.307  59.149  20.099  1.00  0.00    +0.164 HD
BRANCH   9  12
ATOM     12  C   UNL     1      45.861  61.253  18.789  1.00  0.00    +0.092 A 
ATOM     13  C   UNL     1      43.608  62.154  18.284  1.00  0.00    +0.002 A 
ATOM     14  C   UNL     1      44.197  62.792  19.356  1.00  0.00    +0.016 A 
ATOM     15  S   UNL     1      44.624  60.937  17.642  1.00  0.00    -0.135 S 
ATOM     16  C   UNL     1      45.491  62.270  19.649  1.00  0.00    +0.026 A 
ATOM     17  C   UNL     1      42.274  62.419  17.670  1.00  0.00    +0.056 C 
ENDBRANCH   9  12
ENDBRANCH   1   8
BRANCH   4  18
ATOM     18  C   UNL     1      50.953  55.163  20.346  1.00  0.00    +0.402 C 
BRANCH  18  19
ATOM     19  N   UNL     1      50.790  54.015  19.518  1.00  0.00    -0.213 N 
ATOM     20  C   UNL     1      49.625  53.321  19.357  1.00  0.00    +0.260 C 
ATOM     21  C   UNL     1      51.747  53.535  18.696  1.00  0.00    +0.329 C 
ATOM     22  O   UNL     1      48.616  53.521  20.015  1.00  0.00    -0.271 OA
ATOM     23  C   UNL     1      49.833  52.248  18.263  1.00  0.00    +0.121 C 
ATOM     24  N   UNL     1      51.228  52.504  17.963  1.00  0.00    -0.323 N 
ATOM     25  O   UNL     1      52.898  53.936  18.679  1.00  0.00    -0.248 OA
ATOM     26  C   UNL     1      49.654  50.858  18.867  1.00  0.00    +0.046 C 
ATOM     27  H   UNL     1      51.774  52.008  17.270  1.00  0.00    +0.166 HD
BRANCH  23  28
ATOM     28  C   UNL     1      49.034  52.415  16.998  1.00  0.00    +0.024 C 
ATOM     29  C   UNL     1      47.775  53.250  16.919  1.00  0.00    +0.007 C 
ATOM     30  C   UNL     1      47.692  51.749  16.799  1.00  0.00    +0.007 C 
ENDBRANCH  23  28
ENDBRANCH  18  19
ENDBRANCH   4  18
TORSDOF 5
ENDMDL
