MODEL 1
REMARK VINA RESULT:    -7.197      0.000      0.000
REMARK INTER + INTRA:          -9.944
REMARK INTER:                  -9.090
REMARK INTRA:                  -0.854
REMARK UNBOUND:                -0.854
REMARK SMILES NNc1ccc(C[NH+]2CCS(=O)CC2)cc1[N+](=O)[O-]
REMARK SMILES IDX 5 1 4 2 3 3 16 4 15 5 6 6 7 7 8 8 9 9 14 10 10 11 13 12
REMARK SMILES IDX 11 13 12 14 2 16 1 18 17 21 18 22 19 23
REMARK H PARENT 8 15 2 17 1 19 1 20
ROOT
ATOM      1  C   UNL     1      48.596  49.192  18.735  1.00  0.00    +0.012 A 
ATOM      2  C   UNL     1      49.730  49.042  19.549  1.00  0.00    +0.035 A 
ATOM      3  C   UNL     1      50.820  49.930  19.486  1.00  0.00    +0.127 A 
ATOM      4  C   UNL     1      50.735  50.955  18.521  1.00  0.00    +0.294 A 
ATOM      5  C   UNL     1      49.597  51.115  17.700  1.00  0.00    +0.097 A 
ATOM      6  C   UNL     1      48.515  50.232  17.804  1.00  0.00    +0.013 A 
ENDROOT
BRANCH   6   7
ATOM      7  C   UNL     1      47.300  50.393  16.927  1.00  0.00    +0.299 C 
BRANCH   7   8
ATOM      8  N   UNL     1      46.649  49.087  16.551  1.00  0.00    -0.330 N 
ATOM      9  C   UNL     1      45.248  48.939  17.099  1.00  0.00    +0.276 C 
ATOM     10  C   UNL     1      46.742  48.760  15.067  1.00  0.00    +0.276 C 
ATOM     11  C   UNL     1      44.749  47.489  17.078  1.00  0.00    +0.166 C 
ATOM     12  C   UNL     1      45.924  47.524  14.689  1.00  0.00    +0.166 C 
ATOM     13  S   UNL     1      45.816  46.377  16.099  1.00  0.00    +0.032 S 
ATOM     14  O   UNL     1      47.162  46.419  16.771  1.00  0.00    -0.259 OA
ATOM     15  H   UNL     1      47.212  48.341  17.012  1.00  0.00    +0.348 HD
ENDBRANCH   7   8
ENDBRANCH   6   7
BRANCH   3  16
ATOM     16  N   UNL     1      51.994  49.706  20.247  1.00  0.00    -0.318 N 
ATOM     17  H   UNL     1      51.815  49.633  21.262  1.00  0.00    +0.181 HD
BRANCH  16  18
ATOM     18  N   UNL     1      53.027  48.895  19.772  1.00  0.00    -0.250 NA
ATOM     19  H   UNL     1      53.911  49.056  20.257  1.00  0.00    +0.143 HD
ATOM     20  H   UNL     1      52.796  47.902  19.831  1.00  0.00    +0.143 HD
ENDBRANCH  16  18
ENDBRANCH   3  16
BRANCH   4  21
ATOM     21  N   UNL     1      51.833  51.907  18.336  1.00  0.00    +0.065 N 
ATOM     22  O   UNL     1      51.616  53.100  18.593  1.00  0.00    -0.258 OA
ATOM     23  O   UNL     1      52.902  51.456  17.900  1.00  0.00    -0.258 OA
ENDBRANCH   4  21
TORSDOF 5
ENDMDL
MODEL 2
REMARK VINA RESULT:    -7.067      5.088      7.644
REMARK INTER + INTRA:          -9.781
REMARK INTER:                  -9.086
REMARK INTRA:                  -0.695
REMARK UNBOUND:                -0.854
REMARK SMILES NNc1ccc(C[NH+]2CCS(=O)CC2)cc1[N+](=O)[O-]
REMARK SMILES IDX 5 1 4 2 3 3 16 4 15 5 6 6 7 7 8 8 9 9 14 10 10 11 13 12
REMARK SMILES IDX 11 13 12 14 2 16 1 18 17 21 18 22 19 23
REMARK H PARENT 8 15 2 17 1 19 1 20
ROOT
ATOM      1  C   UNL     1      50.801  52.768  21.314  1.00  0.00    +0.012 A 
ATOM      2  C   UNL     1      51.270  51.446  21.367  1.00  0.00    +0.035 A 
ATOM      3  C   UNL     1      51.100  50.547  20.298  1.00  0.00    +0.127 A 
ATOM      4  C   UNL     1      50.385  51.031  19.183  1.00  0.00    +0.294 A 
ATOM      5  C   UNL     1      49.910  52.360  19.120  1.00  0.00    +0.097 A 
ATOM      6  C   UNL     1      50.119  53.241  20.189  1.00  0.00    +0.013 A 
ENDROOT
BRANCH   6   7
ATOM      7  C   UNL     1      49.611  54.659  20.130  1.00  0.00    +0.299 C 
BRANCH   7   8
ATOM      8  N   UNL     1      50.615  55.679  20.604  1.00  0.00    -0.330 N 
ATOM      9  C   UNL     1      51.612  56.073  19.538  1.00  0.00    +0.276 C 
ATOM     10  C   UNL     1      49.988  56.879  21.300  1.00  0.00    +0.276 C 
ATOM     11  C   UNL     1      52.852  56.770  20.110  1.00  0.00    +0.166 C 
ATOM     12  C   UNL     1      51.010  57.974  21.610  1.00  0.00    +0.166 C 
ATOM     13  S   UNL     1      52.661  57.250  21.862  1.00  0.00    +0.032 S 
ATOM     14  O   UNL     1      52.440  55.963  22.608  1.00  0.00    -0.259 OA
ATOM     15  H   UNL     1      51.171  55.212  21.350  1.00  0.00    +0.348 HD
ENDBRANCH   7   8
ENDBRANCH   6   7
BRANCH   3  16
ATOM     16  N   UNL     1      51.497  49.191  20.409  1.00  0.00    -0.318 N 
ATOM     17  H   UNL     1      50.727  48.524  20.235  1.00  0.00    +0.181 HD
BRANCH  16  18
ATOM     18  N   UNL     1      52.755  48.763  19.981  1.00  0.00    -0.250 NA
ATOM     19  H   UNL     1      53.350  48.449  20.749  1.00  0.00    +0.143 HD
ATOM     20  H   UNL     1      52.692  48.015  19.288  1.00  0.00    +0.143 HD
ENDBRANCH  16  18
ENDBRANCH   3  16
BRANCH   4  21
ATOM     21  N   UNL     1      50.107  50.166  18.034  1.00  0.00    +0.065 N 
ATOM     22  O   UNL     1      49.473  49.120  18.236  1.00  0.00    -0.258 OA
ATOM     23  O   UNL     1      50.556  50.524  16.936  1.00  0.00    -0.258 OA
ENDBRANCH   4  21
TORSDOF 5
ENDMDL
MODEL 3
REMARK VINA RESULT:    -6.692      4.878      7.469
REMARK INTER + INTRA:          -9.306
REMARK INTER:                  -8.581
REMARK INTRA:                  -0.725
REMARK UNBOUND:                -0.854
REMARK SMILES NNc1ccc(C[NH+]2CCS(=O)CC2)cc1[N+](=O)[O-]
REMARK SMILES IDX 5 1 4 2 3 3 16 4 15 5 6 6 7 7 8 8 9 9 14 10 10 11 13 12
REMARK SMILES IDX 11 13 12 14 2 16 1 18 17 21 18 22 19 23
REMARK H PARENT 8 15 2 17 1 19 1 20
ROOT
ATOM      1  C   UNL     1      48.676  53.323  17.864  1.00  0.00    +0.012 A 
ATOM      2  C   UNL     1      49.043  52.165  17.160  1.00  0.00    +0.035 A 
ATOM      3  C   UNL     1      50.053  51.299  17.617  1.00  0.00    +0.127 A 
ATOM      4  C   UNL     1      50.717  51.684  18.801  1.00  0.00    +0.294 A 
ATOM      5  C   UNL     1      50.354  52.845  19.517  1.00  0.00    +0.097 A 
ATOM      6  C   UNL     1      49.325  53.674  19.052  1.00  0.00    +0.013 A 
ENDROOT
BRANCH   6   7
ATOM      7  C   UNL     1      48.935  54.919  19.809  1.00  0.00    +0.299 C 
BRANCH   7   8
ATOM      8  N   UNL     1      50.111  55.679  20.365  1.00  0.00    -0.330 N 
ATOM      9  C   UNL     1      51.101  56.105  19.304  1.00  0.00    +0.276 C 
ATOM     10  C   UNL     1      49.720  56.817  21.299  1.00  0.00    +0.276 C 
ATOM     11  C   UNL     1      52.464  56.500  19.886  1.00  0.00    +0.166 C 
ATOM     12  C   UNL     1      50.918  57.677  21.705  1.00  0.00    +0.166 C 
ATOM     13  S   UNL     1      52.444  56.685  21.702  1.00  0.00    +0.032 S 
ATOM     14  O   UNL     1      52.060  55.333  22.238  1.00  0.00    -0.259 OA
ATOM     15  H   UNL     1      50.625  55.011  20.977  1.00  0.00    +0.348 HD
ENDBRANCH   7   8
ENDBRANCH   6   7
BRANCH   3  16
ATOM     16  N   UNL     1      50.473  50.188  16.844  1.00  0.00    -0.318 N 
ATOM     17  H   UNL     1      49.716  49.508  16.662  1.00  0.00    +0.181 HD
BRANCH  16  18
ATOM     18  N   UNL     1      51.399  50.329  15.808  1.00  0.00    -0.250 NA
ATOM     19  H   UNL     1      52.194  50.917  16.064  1.00  0.00    +0.143 HD
ATOM     20  H   UNL     1      51.748  49.428  15.478  1.00  0.00    +0.143 HD
ENDBRANCH  16  18
ENDBRANCH   3  16
BRANCH   4  21
ATOM     21  N   UNL     1      51.818  50.881  19.341  1.00  0.00    +0.065 N 
ATOM     22  O   UNL     1      52.755  50.599  18.580  1.00  0.00    -0.258 OA
ATOM     23  O   UNL     1      51.720  50.509  20.518  1.00  0.00    -0.258 OA
ENDBRANCH   4  21
TORSDOF 5
ENDMDL
MODEL 4
REMARK VINA RESULT:    -6.454      2.171      2.901
REMARK INTER + INTRA:          -9.005
REMARK INTER:                  -8.598
REMARK INTRA:                  -0.408
REMARK UNBOUND:                -0.854
REMARK SMILES NNc1ccc(C[NH+]2CCS(=O)CC2)cc1[N+](=O)[O-]
REMARK SMILES IDX 5 1 4 2 3 3 16 4 15 5 6 6 7 7 8 8 9 9 14 10 10 11 13 12
REMARK SMILES IDX 11 13 12 14 2 16 1 18 17 21 18 22 19 23
REMARK H PARENT 8 15 2 17 1 19 1 20
ROOT
ATOM      1  C   UNL     1      47.636  48.406  17.997  1.00  0.00    +0.012 A 
ATOM      2  C   UNL     1      48.987  48.757  18.151  1.00  0.00    +0.035 A 
ATOM      3  C   UNL     1      49.451  50.065  17.921  1.00  0.00    +0.127 A 
ATOM      4  C   UNL     1      48.493  50.999  17.477  1.00  0.00    +0.294 A 
ATOM      5  C   UNL     1      47.132  50.656  17.320  1.00  0.00    +0.097 A 
ATOM      6  C   UNL     1      46.693  49.352  17.582  1.00  0.00    +0.013 A 
ENDROOT
BRANCH   6   7
ATOM      7  C   UNL     1      45.243  48.977  17.413  1.00  0.00    +0.299 C 
BRANCH   7   8
ATOM      8  N   UNL     1      44.980  48.118  16.203  1.00  0.00    -0.330 N 
ATOM      9  C   UNL     1      45.935  48.386  15.062  1.00  0.00    +0.276 C 
ATOM     10  C   UNL     1      44.842  46.635  16.523  1.00  0.00    +0.276 C 
ATOM     11  C   UNL     1      45.432  47.834  13.722  1.00  0.00    +0.166 C 
ATOM     12  C   UNL     1      44.753  45.772  15.263  1.00  0.00    +0.166 C 
ATOM     13  S   UNL     1      44.002  46.714  13.898  1.00  0.00    +0.032 S 
ATOM     14  O   UNL     1      42.914  47.547  14.520  1.00  0.00    -0.259 OA
ATOM     15  H   UNL     1      44.038  48.392  15.852  1.00  0.00    +0.348 HD
ENDBRANCH   7   8
ENDBRANCH   6   7
BRANCH   3  16
ATOM     16  N   UNL     1      50.832  50.375  17.991  1.00  0.00    -0.318 N 
ATOM     17  H   UNL     1      51.320  49.897  18.767  1.00  0.00    +0.181 HD
BRANCH  16  18
ATOM     18  N   UNL     1      51.598  50.557  16.837  1.00  0.00    -0.250 NA
ATOM     19  H   UNL     1      51.037  50.553  15.984  1.00  0.00    +0.143 HD
ATOM     20  H   UNL     1      52.143  51.420  16.868  1.00  0.00    +0.143 HD
ENDBRANCH  16  18
ENDBRANCH   3  16
BRANCH   4  21
ATOM     21  N   UNL     1      48.877  52.378  17.161  1.00  0.00    +0.065 N 
ATOM     22  O   UNL     1      48.379  52.901  16.154  1.00  0.00    -0.258 OA
ATOM     23  O   UNL     1      49.704  52.918  17.908  1.00  0.00    -0.258 OA
ENDBRANCH   4  21
TORSDOF 5
ENDMDL
MODEL 5
REMARK VINA RESULT:    -6.403      1.954      2.640
REMARK INTER + INTRA:          -8.942
REMARK INTER:                  -8.201
REMARK INTRA:                  -0.741
REMARK UNBOUND:                -0.854
REMARK SMILES NNc1ccc(C[NH+]2CCS(=O)CC2)cc1[N+](=O)[O-]
REMARK SMILES IDX 5 1 4 2 3 3 16 4 15 5 6 6 7 7 8 8 9 9 14 10 10 11 13 12
REMARK SMILES IDX 11 13 12 14 2 16 1 18 17 21 18 22 19 23
REMARK H PARENT 8 15 2 17 1 19 1 20
ROOT
ATOM      1  C   UNL     1      49.583  53.000  18.182  1.00  0.00    +0.012 A 
ATOM      2  C   UNL     1      50.433  53.255  19.270  1.00  0.00    +0.035 A 
ATOM      3  C   UNL     1      51.224  52.249  19.854  1.00  0.00    +0.127 A 
ATOM      4  C   UNL     1      51.080  50.952  19.319  1.00  0.00    +0.294 A 
ATOM      5  C   UNL     1      50.230  50.686  18.224  1.00  0.00    +0.097 A 
ATOM      6  C   UNL     1      49.474  51.714  17.645  1.00  0.00    +0.013 A 
ENDROOT
BRANCH   6   7
ATOM      7  C   UNL     1      48.560  51.436  16.479  1.00  0.00    +0.299 C 
BRANCH   7   8
ATOM      8  N   UNL     1      47.948  50.059  16.506  1.00  0.00    -0.330 N 
ATOM      9  C   UNL     1      46.634  50.005  17.252  1.00  0.00    +0.276 C 
ATOM     10  C   UNL     1      47.880  49.391  15.140  1.00  0.00    +0.276 C 
ATOM     11  C   UNL     1      46.224  48.578  17.635  1.00  0.00    +0.166 C 
ATOM     12  C   UNL     1      47.099  48.077  15.171  1.00  0.00    +0.166 C 
ATOM     13  S   UNL     1      47.230  47.296  16.811  1.00  0.00    +0.032 S 
ATOM     14  O   UNL     1      48.642  47.537  17.272  1.00  0.00    -0.259 OA
ATOM     15  H   UNL     1      48.606  49.462  17.051  1.00  0.00    +0.348 HD
ENDBRANCH   7   8
ENDBRANCH   6   7
BRANCH   3  16
ATOM     16  N   UNL     1      52.003  52.506  21.010  1.00  0.00    -0.318 N 
ATOM     17  H   UNL     1      52.619  53.330  20.913  1.00  0.00    +0.181 HD
BRANCH  16  18
ATOM     18  N   UNL     1      51.492  52.301  22.294  1.00  0.00    -0.250 NA
ATOM     19  H   UNL     1      51.682  51.364  22.651  1.00  0.00    +0.143 HD
ATOM     20  H   UNL     1      51.845  52.986  22.963  1.00  0.00    +0.143 HD
ENDBRANCH  16  18
ENDBRANCH   3  16
BRANCH   4  21
ATOM     21  N   UNL     1      51.820  49.819  19.883  1.00  0.00    +0.065 N 
ATOM     22  O   UNL     1      53.055  49.905  19.940  1.00  0.00    -0.258 OA
ATOM     23  O   UNL     1      51.157  48.833  20.235  1.00  0.00    -0.258 OA
ENDBRANCH   4  21
TORSDOF 5
ENDMDL
