MODEL 1
REMARK VINA RESULT:    -7.086      0.000      0.000
REMARK INTER + INTRA:          -9.792
REMARK INTER:                  -9.364
REMARK INTRA:                  -0.427
REMARK UNBOUND:                -0.427
REMARK SMILES COc1ccccc1N(C)Cc1nnsc1NN
REMARK SMILES IDX 11 1 9 2 10 3 8 4 7 5 3 6 6 7 4 8 5 9 2 10 1 11 12 12 16 13
REMARK SMILES IDX 13 14 15 15 14 16 17 17 18 19
REMARK H PARENT 17 18 18 20 18 21
ROOT
ATOM      1  C   UNL     1      50.337  53.465  20.422  1.00  0.00    +0.177 C 
ENDROOT
BRANCH   1   2
ATOM      2  N   UNL     1      50.937  54.816  20.342  1.00  0.00    -0.366 N 
ATOM      3  C   UNL     1      51.914  55.032  19.282  1.00  0.00    +0.144 C 
BRANCH   2   4
ATOM      4  C   UNL     1      50.005  55.848  20.590  1.00  0.00    +0.079 A 
ATOM      5  C   UNL     1      48.758  55.888  19.941  1.00  0.00    +0.030 A 
ATOM      6  C   UNL     1      50.306  56.883  21.517  1.00  0.00    +0.142 A 
ATOM      7  C   UNL     1      47.835  56.904  20.199  1.00  0.00    +0.002 A 
ATOM      8  C   UNL     1      49.370  57.896  21.771  1.00  0.00    +0.048 A 
ATOM      9  C   UNL     1      48.140  57.905  21.113  1.00  0.00    +0.004 A 
BRANCH   6  10
ATOM     10  O   UNL     1      51.547  56.822  22.109  1.00  0.00    -0.495 OA
ATOM     11  C   UNL     1      52.503  57.803  21.733  1.00  0.00    +0.278 C 
ENDBRANCH   6  10
ENDBRANCH   2   4
ENDBRANCH   1   2
BRANCH   1  12
ATOM     12  C   UNL     1      51.235  52.273  20.221  1.00  0.00    +0.120 A 
ATOM     13  C   UNL     1      51.392  51.526  19.052  1.00  0.00    +0.149 A 
ATOM     14  N   UNL     1      52.003  51.853  21.306  1.00  0.00    -0.139 NA
ATOM     15  S   UNL     1      52.562  50.304  19.434  1.00  0.00    +0.007 S 
ATOM     16  N   UNL     1      52.750  50.808  21.009  1.00  0.00    -0.089 NA
BRANCH  13  17
ATOM     17  N   UNL     1      50.801  51.726  17.828  1.00  0.00    -0.313 N 
ATOM     18  H   UNL     1      49.797  51.927  17.841  1.00  0.00    +0.182 HD
BRANCH  17  19
ATOM     19  N   UNL     1      51.189  50.775  16.859  1.00  0.00    -0.250 NA
ATOM     20  H   UNL     1      52.142  50.967  16.539  1.00  0.00    +0.143 HD
ATOM     21  H   UNL     1      51.247  49.841  17.278  1.00  0.00    +0.143 HD
ENDBRANCH  17  19
ENDBRANCH  13  17
ENDBRANCH   1  12
TORSDOF 6
ENDMDL
MODEL 2
REMARK VINA RESULT:    -6.503      3.226      6.282
REMARK INTER + INTRA:          -9.022
REMARK INTER:                  -8.519
REMARK INTRA:                  -0.503
REMARK UNBOUND:                -0.427
REMARK SMILES COc1ccccc1N(C)Cc1nnsc1NN
REMARK SMILES IDX 11 1 9 2 10 3 8 4 7 5 3 6 6 7 4 8 5 9 2 10 1 11 12 12 16 13
REMARK SMILES IDX 13 14 15 15 14 16 17 17 18 19
REMARK H PARENT 17 18 18 20 18 21
ROOT
ATOM      1  C   UNL     1      51.485  53.619  20.948  1.00  0.00    +0.177 C 
ENDROOT
BRANCH   1   2
ATOM      2  N   UNL     1      51.600  52.944  19.636  1.00  0.00    -0.366 N 
ATOM      3  C   UNL     1      52.866  53.103  18.931  1.00  0.00    +0.144 C 
BRANCH   2   4
ATOM      4  C   UNL     1      51.001  51.664  19.620  1.00  0.00    +0.079 A 
ATOM      5  C   UNL     1      51.314  50.691  20.585  1.00  0.00    +0.030 A 
ATOM      6  C   UNL     1      50.050  51.326  18.619  1.00  0.00    +0.142 A 
ATOM      7  C   UNL     1      50.710  49.432  20.573  1.00  0.00    +0.002 A 
ATOM      8  C   UNL     1      49.446  50.061  18.618  1.00  0.00    +0.048 A 
ATOM      9  C   UNL     1      49.777  49.118  19.592  1.00  0.00    +0.004 A 
BRANCH   6  10
ATOM     10  O   UNL     1      49.792  52.298  17.677  1.00  0.00    -0.495 OA
ATOM     11  C   UNL     1      48.712  52.074  16.782  1.00  0.00    +0.278 C 
ENDBRANCH   6  10
ENDBRANCH   2   4
ENDBRANCH   1   2
BRANCH   1  12
ATOM     12  C   UNL     1      50.715  54.911  21.019  1.00  0.00    +0.120 A 
ATOM     13  C   UNL     1      50.952  55.985  21.880  1.00  0.00    +0.149 A 
ATOM     14  N   UNL     1      49.646  55.076  20.140  1.00  0.00    -0.139 NA
ATOM     15  S   UNL     1      49.757  57.176  21.480  1.00  0.00    +0.007 S 
ATOM     16  N   UNL     1      49.054  56.245  20.293  1.00  0.00    -0.089 NA
BRANCH  13  17
ATOM     17  N   UNL     1      51.948  56.121  22.817  1.00  0.00    -0.313 N 
ATOM     18  H   UNL     1      51.639  56.282  23.780  1.00  0.00    +0.182 HD
BRANCH  17  19
ATOM     19  N   UNL     1      52.998  56.964  22.396  1.00  0.00    -0.250 NA
ATOM     20  H   UNL     1      52.791  57.351  21.470  1.00  0.00    +0.143 HD
ATOM     21  H   UNL     1      53.062  57.787  23.004  1.00  0.00    +0.143 HD
ENDBRANCH  17  19
ENDBRANCH  13  17
ENDBRANCH   1  12
TORSDOF 6
ENDMDL
MODEL 3
REMARK VINA RESULT:    -6.490      2.300      3.192
REMARK INTER + INTRA:          -9.004
REMARK INTER:                  -8.551
REMARK INTRA:                  -0.453
REMARK UNBOUND:                -0.427
REMARK SMILES COc1ccccc1N(C)Cc1nnsc1NN
REMARK SMILES IDX 11 1 9 2 10 3 8 4 7 5 3 6 6 7 4 8 5 9 2 10 1 11 12 12 16 13
REMARK SMILES IDX 13 14 15 15 14 16 17 17 18 19
REMARK H PARENT 17 18 18 20 18 21
ROOT
ATOM      1  C   UNL     1      50.891  55.221  19.127  1.00  0.00    +0.177 C 
ENDROOT
BRANCH   1   2
ATOM      2  N   UNL     1      49.468  55.315  18.734  1.00  0.00    -0.366 N 
ATOM      3  C   UNL     1      48.712  54.068  18.723  1.00  0.00    +0.144 C 
BRANCH   2   4
ATOM      4  C   UNL     1      48.826  56.461  19.255  1.00  0.00    +0.079 A 
ATOM      5  C   UNL     1      48.791  56.724  20.635  1.00  0.00    +0.030 A 
ATOM      6  C   UNL     1      48.197  57.392  18.384  1.00  0.00    +0.142 A 
ATOM      7  C   UNL     1      48.167  57.865  21.144  1.00  0.00    +0.002 A 
ATOM      8  C   UNL     1      47.576  58.536  18.905  1.00  0.00    +0.048 A 
ATOM      9  C   UNL     1      47.562  58.770  20.280  1.00  0.00    +0.004 A 
BRANCH   6  10
ATOM     10  O   UNL     1      48.231  57.084  17.042  1.00  0.00    -0.495 OA
ATOM     11  C   UNL     1      47.194  57.604  16.222  1.00  0.00    +0.278 C 
ENDBRANCH   6  10
ENDBRANCH   2   4
ENDBRANCH   1   2
BRANCH   1  12
ATOM     12  C   UNL     1      51.335  54.018  19.917  1.00  0.00    +0.120 A 
ATOM     13  C   UNL     1      51.769  52.792  19.408  1.00  0.00    +0.149 A 
ATOM     14  N   UNL     1      51.320  54.115  21.307  1.00  0.00    -0.139 NA
ATOM     15  S   UNL     1      52.153  51.822  20.793  1.00  0.00    +0.007 S 
ATOM     16  N   UNL     1      51.733  53.005  21.886  1.00  0.00    -0.089 NA
BRANCH  13  17
ATOM     17  N   UNL     1      51.924  52.423  18.094  1.00  0.00    -0.313 N 
ATOM     18  H   UNL     1      51.561  51.499  17.841  1.00  0.00    +0.182 HD
BRANCH  17  19
ATOM     19  N   UNL     1      53.211  52.699  17.584  1.00  0.00    -0.250 NA
ATOM     20  H   UNL     1      53.631  53.482  18.093  1.00  0.00    +0.143 HD
ATOM     21  H   UNL     1      53.844  51.913  17.765  1.00  0.00    +0.143 HD
ENDBRANCH  17  19
ENDBRANCH  13  17
ENDBRANCH   1  12
TORSDOF 6
ENDMDL
MODEL 4
REMARK VINA RESULT:    -6.377      3.138      5.812
REMARK INTER + INTRA:          -8.855
REMARK INTER:                  -7.884
REMARK INTRA:                  -0.971
REMARK UNBOUND:                -0.427
REMARK SMILES COc1ccccc1N(C)Cc1nnsc1NN
REMARK SMILES IDX 11 1 9 2 10 3 8 4 7 5 3 6 6 7 4 8 5 9 2 10 1 11 12 12 16 13
REMARK SMILES IDX 13 14 15 15 14 16 17 17 18 19
REMARK H PARENT 17 18 18 20 18 21
ROOT
ATOM      1  C   UNL     1      51.356  53.072  21.023  1.00  0.00    +0.177 C 
ENDROOT
BRANCH   1   2
ATOM      2  N   UNL     1      51.428  52.678  19.598  1.00  0.00    -0.366 N 
ATOM      3  C   UNL     1      52.720  52.838  18.943  1.00  0.00    +0.144 C 
BRANCH   2   4
ATOM      4  C   UNL     1      50.692  51.506  19.312  1.00  0.00    +0.079 A 
ATOM      5  C   UNL     1      50.946  50.294  19.978  1.00  0.00    +0.030 A 
ATOM      6  C   UNL     1      49.659  51.524  18.335  1.00  0.00    +0.142 A 
ATOM      7  C   UNL     1      50.208  49.142  19.701  1.00  0.00    +0.002 A 
ATOM      8  C   UNL     1      48.922  50.362  18.067  1.00  0.00    +0.048 A 
ATOM      9  C   UNL     1      49.197  49.176  18.748  1.00  0.00    +0.004 A 
BRANCH   6  10
ATOM     10  O   UNL     1      49.461  52.723  17.687  1.00  0.00    -0.495 OA
ATOM     11  C   UNL     1      48.344  52.821  16.815  1.00  0.00    +0.278 C 
ENDBRANCH   6  10
ENDBRANCH   2   4
ENDBRANCH   1   2
BRANCH   1  12
ATOM     12  C   UNL     1      51.135  54.525  21.350  1.00  0.00    +0.120 A 
ATOM     13  C   UNL     1      50.174  55.374  20.799  1.00  0.00    +0.149 A 
ATOM     14  N   UNL     1      51.969  55.106  22.304  1.00  0.00    -0.139 NA
ATOM     15  S   UNL     1      50.404  56.906  21.578  1.00  0.00    +0.007 S 
ATOM     16  N   UNL     1      51.678  56.376  22.509  1.00  0.00    -0.089 NA
BRANCH  13  17
ATOM     17  N   UNL     1      49.202  55.074  19.876  1.00  0.00    -0.313 N 
ATOM     18  H   UNL     1      48.909  54.093  19.834  1.00  0.00    +0.182 HD
BRANCH  17  19
ATOM     19  N   UNL     1      49.429  55.665  18.614  1.00  0.00    -0.250 NA
ATOM     20  H   UNL     1      50.422  55.605  18.370  1.00  0.00    +0.143 HD
ATOM     21  H   UNL     1      48.956  55.131  17.878  1.00  0.00    +0.143 HD
ENDBRANCH  17  19
ENDBRANCH  13  17
ENDBRANCH   1  12
TORSDOF 6
ENDMDL
MODEL 5
REMARK VINA RESULT:    -6.282      5.122      7.416
REMARK INTER + INTRA:          -8.730
REMARK INTER:                  -8.289
REMARK INTRA:                  -0.441
REMARK UNBOUND:                -0.427
REMARK SMILES COc1ccccc1N(C)Cc1nnsc1NN
REMARK SMILES IDX 11 1 9 2 10 3 8 4 7 5 3 6 6 7 4 8 5 9 2 10 1 11 12 12 16 13
REMARK SMILES IDX 13 14 15 15 14 16 17 17 18 19
REMARK H PARENT 17 18 18 20 18 21
ROOT
ATOM      1  C   UNL     1      49.123  49.962  18.172  1.00  0.00    +0.177 C 
ENDROOT
BRANCH   1   2
ATOM      2  N   UNL     1      47.949  50.576  17.511  1.00  0.00    -0.366 N 
ATOM      3  C   UNL     1      48.005  52.017  17.293  1.00  0.00    +0.144 C 
BRANCH   2   4
ATOM      4  C   UNL     1      47.423  49.779  16.469  1.00  0.00    +0.079 A 
ATOM      5  C   UNL     1      47.988  49.782  15.182  1.00  0.00    +0.030 A 
ATOM      6  C   UNL     1      46.300  48.939  16.702  1.00  0.00    +0.142 A 
ATOM      7  C   UNL     1      47.472  48.982  14.159  1.00  0.00    +0.002 A 
ATOM      8  C   UNL     1      45.794  48.138  15.670  1.00  0.00    +0.048 A 
ATOM      9  C   UNL     1      46.378  48.161  14.403  1.00  0.00    +0.004 A 
BRANCH   6  10
ATOM     10  O   UNL     1      45.762  48.987  17.969  1.00  0.00    -0.495 OA
ATOM     11  C   UNL     1      45.839  47.809  18.759  1.00  0.00    +0.278 C 
ENDBRANCH   6  10
ENDBRANCH   2   4
ENDBRANCH   1   2
BRANCH   1  12
ATOM     12  C   UNL     1      50.308  50.839  18.479  1.00  0.00    +0.120 A 
ATOM     13  C   UNL     1      51.436  51.036  17.680  1.00  0.00    +0.149 A 
ATOM     14  N   UNL     1      50.300  51.539  19.684  1.00  0.00    -0.139 NA
ATOM     15  S   UNL     1      52.435  52.153  18.553  1.00  0.00    +0.007 S 
ATOM     16  N   UNL     1      51.384  52.273  19.838  1.00  0.00    -0.089 NA
BRANCH  13  17
ATOM     17  N   UNL     1      51.701  50.514  16.437  1.00  0.00    -0.313 N 
ATOM     18  H   UNL     1      51.220  49.640  16.205  1.00  0.00    +0.182 HD
BRANCH  17  19
ATOM     19  N   UNL     1      53.074  50.524  16.109  1.00  0.00    -0.250 NA
ATOM     20  H   UNL     1      53.595  51.086  16.789  1.00  0.00    +0.143 HD
ATOM     21  H   UNL     1      53.472  49.584  16.202  1.00  0.00    +0.143 HD
ENDBRANCH  17  19
ENDBRANCH  13  17
ENDBRANCH   1  12
TORSDOF 6
ENDMDL
