MODEL 1
REMARK VINA RESULT:    -6.320      0.000      0.000
REMARK INTER + INTRA:          -8.398
REMARK INTER:                  -7.613
REMARK INTRA:                  -0.784
REMARK UNBOUND:                -0.784
REMARK SMILES CC(=O)N1CCN(Cc2nnsc2NN)CC1
REMARK SMILES IDX 9 1 13 2 12 3 11 4 10 5 8 6 7 7 2 8 3 9 4 10 5 11 17 12 6 13
REMARK SMILES IDX 16 14 1 15 14 16 15 18
REMARK H PARENT 14 17 15 19 15 20
ROOT
ATOM      1  C   UNL     1      52.468  52.298  19.595  1.00  0.00    +0.114 A 
ATOM      2  C   UNL     1      52.299  51.382  20.635  1.00  0.00    +0.148 A 
ATOM      3  S   UNL     1      52.435  49.819  19.911  1.00  0.00    +0.007 S 
ATOM      4  N   UNL     1      52.752  50.423  18.389  1.00  0.00    -0.089 NA
ATOM      5  N   UNL     1      52.735  51.742  18.347  1.00  0.00    -0.139 NA
ENDROOT
BRANCH   1   6
ATOM      6  C   UNL     1      52.370  53.791  19.688  1.00  0.00    +0.146 C 
BRANCH   6   7
ATOM      7  N   UNL     1      51.079  54.214  20.272  1.00  0.00    -0.294 NA
ATOM      8  C   UNL     1      48.216  57.437  19.535  1.00  0.00    +0.219 C 
ATOM      9  O   UNL     1      47.717  57.603  18.422  1.00  0.00    -0.275 OA
ATOM     10  N   UNL     1      49.175  56.472  19.785  1.00  0.00    -0.340 N 
ATOM     11  C   UNL     1      49.567  55.562  18.710  1.00  0.00    +0.135 C 
ATOM     12  C   UNL     1      49.850  56.280  21.072  1.00  0.00    +0.135 C 
ATOM     13  C   UNL     1      50.003  54.189  19.252  1.00  0.00    +0.106 C 
ATOM     14  C   UNL     1      51.196  55.548  20.912  1.00  0.00    +0.106 C 
ATOM     15  C   UNL     1      47.800  58.305  20.696  1.00  0.00    +0.114 C 
ENDBRANCH   6   7
ENDBRANCH   1   6
BRANCH   2  16
ATOM     16  N   UNL     1      52.049  51.675  21.949  1.00  0.00    -0.313 N 
ATOM     17  H   UNL     1      52.521  51.068  22.634  1.00  0.00    +0.182 HD
BRANCH  16  18
ATOM     18  N   UNL     1      50.720  52.018  22.250  1.00  0.00    -0.250 NA
ATOM     19  H   UNL     1      50.205  52.290  21.410  1.00  0.00    +0.143 HD
ATOM     20  H   UNL     1      50.687  52.817  22.888  1.00  0.00    +0.143 HD
ENDBRANCH  16  18
ENDBRANCH   2  16
TORSDOF 4
ENDMDL
MODEL 2
REMARK VINA RESULT:    -6.282      1.590      2.653
REMARK INTER + INTRA:          -8.351
REMARK INTER:                  -7.945
REMARK INTRA:                  -0.407
REMARK UNBOUND:                -0.784
REMARK SMILES CC(=O)N1CCN(Cc2nnsc2NN)CC1
REMARK SMILES IDX 9 1 13 2 12 3 11 4 10 5 8 6 7 7 2 8 3 9 4 10 5 11 17 12 6 13
REMARK SMILES IDX 16 14 1 15 14 16 15 18
REMARK H PARENT 14 17 15 19 15 20
ROOT
ATOM      1  C   UNL     1      51.554  52.084  20.474  1.00  0.00    +0.114 A 
ATOM      2  C   UNL     1      51.498  51.689  19.135  1.00  0.00    +0.148 A 
ATOM      3  S   UNL     1      51.062  50.017  19.156  1.00  0.00    +0.007 S 
ATOM      4  N   UNL     1      50.922  49.955  20.817  1.00  0.00    -0.089 NA
ATOM      5  N   UNL     1      51.213  51.103  21.400  1.00  0.00    -0.139 NA
ENDROOT
BRANCH   1   6
ATOM      6  C   UNL     1      51.957  53.429  20.997  1.00  0.00    +0.146 C 
BRANCH   6   7
ATOM      7  N   UNL     1      51.275  54.521  20.269  1.00  0.00    -0.294 NA
ATOM      8  C   UNL     1      48.590  57.802  21.340  1.00  0.00    +0.219 C 
ATOM      9  O   UNL     1      48.905  58.629  22.195  1.00  0.00    -0.275 OA
ATOM     10  N   UNL     1      49.384  56.714  21.027  1.00  0.00    -0.340 N 
ATOM     11  C   UNL     1      50.685  56.570  21.680  1.00  0.00    +0.135 C 
ATOM     12  C   UNL     1      49.024  55.665  20.070  1.00  0.00    +0.135 C 
ATOM     13  C   UNL     1      51.701  55.846  20.779  1.00  0.00    +0.106 C 
ATOM     14  C   UNL     1      49.801  54.360  20.326  1.00  0.00    +0.106 C 
ATOM     15  C   UNL     1      47.289  57.938  20.589  1.00  0.00    +0.114 C 
ENDBRANCH   6   7
ENDBRANCH   1   6
BRANCH   2  16
ATOM     16  N   UNL     1      51.765  52.469  18.042  1.00  0.00    -0.313 N 
ATOM     17  H   UNL     1      51.223  52.244  17.196  1.00  0.00    +0.182 HD
BRANCH  16  18
ATOM     18  N   UNL     1      53.121  52.777  17.835  1.00  0.00    -0.250 NA
ATOM     19  H   UNL     1      53.316  52.964  16.850  1.00  0.00    +0.143 HD
ATOM     20  H   UNL     1      53.717  51.992  18.110  1.00  0.00    +0.143 HD
ENDBRANCH  16  18
ENDBRANCH   2  16
TORSDOF 4
ENDMDL
MODEL 3
REMARK VINA RESULT:    -6.157      5.716      7.299
REMARK INTER + INTRA:          -8.201
REMARK INTER:                  -7.724
REMARK INTRA:                  -0.477
REMARK UNBOUND:                -0.784
REMARK SMILES CC(=O)N1CCN(Cc2nnsc2NN)CC1
REMARK SMILES IDX 9 1 13 2 12 3 11 4 10 5 8 6 7 7 2 8 3 9 4 10 5 11 17 12 6 13
REMARK SMILES IDX 16 14 1 15 14 16 15 18
REMARK H PARENT 14 17 15 19 15 20
ROOT
ATOM      1  C   UNL     1      50.560  49.865  19.220  1.00  0.00    +0.114 A 
ATOM      2  C   UNL     1      51.401  50.679  18.458  1.00  0.00    +0.148 A 
ATOM      3  S   UNL     1      52.232  51.686  19.591  1.00  0.00    +0.007 S 
ATOM      4  N   UNL     1      51.519  50.976  20.921  1.00  0.00    -0.089 NA
ATOM      5  N   UNL     1      50.651  50.035  20.598  1.00  0.00    -0.139 NA
ENDROOT
BRANCH   1   6
ATOM      6  C   UNL     1      49.574  48.860  18.704  1.00  0.00    +0.146 C 
BRANCH   6   7
ATOM      7  N   UNL     1      48.860  49.364  17.511  1.00  0.00    -0.294 NA
ATOM      8  C   UNL     1      45.354  48.133  15.207  1.00  0.00    +0.219 C 
ATOM      9  O   UNL     1      44.257  47.985  15.746  1.00  0.00    -0.275 OA
ATOM     10  N   UNL     1      46.496  48.454  15.917  1.00  0.00    -0.340 N 
ATOM     11  C   UNL     1      46.396  48.700  17.355  1.00  0.00    +0.135 C 
ATOM     12  C   UNL     1      47.836  48.571  15.334  1.00  0.00    +0.135 C 
ATOM     13  C   UNL     1      47.456  49.706  17.839  1.00  0.00    +0.106 C 
ATOM     14  C   UNL     1      48.941  48.393  16.392  1.00  0.00    +0.106 C 
ATOM     15  C   UNL     1      45.502  47.954  13.717  1.00  0.00    +0.114 C 
ENDBRANCH   6   7
ENDBRANCH   1   6
BRANCH   2  16
ATOM     16  N   UNL     1      51.513  50.688  17.093  1.00  0.00    -0.313 N 
ATOM     17  H   UNL     1      50.797  50.148  16.588  1.00  0.00    +0.182 HD
BRANCH  16  18
ATOM     18  N   UNL     1      52.822  50.583  16.594  1.00  0.00    -0.250 NA
ATOM     19  H   UNL     1      52.856  50.013  15.746  1.00  0.00    +0.143 HD
ATOM     20  H   UNL     1      53.436  50.132  17.277  1.00  0.00    +0.143 HD
ENDBRANCH  16  18
ENDBRANCH   2  16
TORSDOF 4
ENDMDL
MODEL 4
REMARK VINA RESULT:    -5.974      5.241      6.504
REMARK INTER + INTRA:          -7.980
REMARK INTER:                  -7.409
REMARK INTRA:                  -0.572
REMARK UNBOUND:                -0.784
REMARK SMILES CC(=O)N1CCN(Cc2nnsc2NN)CC1
REMARK SMILES IDX 9 1 13 2 12 3 11 4 10 5 8 6 7 7 2 8 3 9 4 10 5 11 17 12 6 13
REMARK SMILES IDX 16 14 1 15 14 16 15 18
REMARK H PARENT 14 17 15 19 15 20
ROOT
ATOM      1  C   UNL     1      50.899  50.945  19.003  1.00  0.00    +0.114 A 
ATOM      2  C   UNL     1      51.652  50.247  19.950  1.00  0.00    +0.148 A 
ATOM      3  S   UNL     1      51.990  51.381  21.210  1.00  0.00    +0.007 S 
ATOM      4  N   UNL     1      51.119  52.611  20.496  1.00  0.00    -0.089 NA
ATOM      5  N   UNL     1      50.598  52.263  19.333  1.00  0.00    -0.139 NA
ENDROOT
BRANCH   1   6
ATOM      6  C   UNL     1      50.413  50.427  17.684  1.00  0.00    +0.146 C 
BRANCH   6   7
ATOM      7  N   UNL     1      49.538  49.247  17.853  1.00  0.00    -0.294 NA
ATOM      8  C   UNL     1      45.352  48.305  17.010  1.00  0.00    +0.219 C 
ATOM      9  O   UNL     1      44.886  48.432  15.878  1.00  0.00    -0.275 OA
ATOM     10  N   UNL     1      46.651  48.659  17.326  1.00  0.00    -0.340 N 
ATOM     11  C   UNL     1      47.537  49.137  16.265  1.00  0.00    +0.135 C 
ATOM     12  C   UNL     1      47.231  48.594  18.670  1.00  0.00    +0.135 C 
ATOM     13  C   UNL     1      49.009  48.786  16.547  1.00  0.00    +0.106 C 
ATOM     14  C   UNL     1      48.446  49.529  18.818  1.00  0.00    +0.106 C 
ATOM     15  C   UNL     1      44.501  47.756  18.128  1.00  0.00    +0.114 C 
ENDBRANCH   6   7
ENDBRANCH   1   6
BRANCH   2  16
ATOM     16  N   UNL     1      52.058  48.941  19.870  1.00  0.00    -0.313 N 
ATOM     17  H   UNL     1      52.356  48.628  18.935  1.00  0.00    +0.182 HD
BRANCH  16  18
ATOM     18  N   UNL     1      51.290  48.024  20.606  1.00  0.00    -0.250 NA
ATOM     19  H   UNL     1      50.984  47.240  20.026  1.00  0.00    +0.143 HD
ATOM     20  H   UNL     1      50.444  48.469  20.970  1.00  0.00    +0.143 HD
ENDBRANCH  16  18
ENDBRANCH   2  16
TORSDOF 4
ENDMDL
MODEL 5
REMARK VINA RESULT:    -5.953      2.230      2.674
REMARK INTER + INTRA:          -7.956
REMARK INTER:                  -7.166
REMARK INTRA:                  -0.790
REMARK UNBOUND:                -0.784
REMARK SMILES CC(=O)N1CCN(Cc2nnsc2NN)CC1
REMARK SMILES IDX 9 1 13 2 12 3 11 4 10 5 8 6 7 7 2 8 3 9 4 10 5 11 17 12 6 13
REMARK SMILES IDX 16 14 1 15 14 16 15 18
REMARK H PARENT 14 17 15 19 15 20
ROOT
ATOM      1  C   UNL     1      50.439  51.239  18.929  1.00  0.00    +0.114 A 
ATOM      2  C   UNL     1      51.174  50.399  19.769  1.00  0.00    +0.148 A 
ATOM      3  S   UNL     1      50.276  48.925  19.862  1.00  0.00    +0.007 S 
ATOM      4  N   UNL     1      49.094  49.442  18.805  1.00  0.00    -0.089 NA
ATOM      5  N   UNL     1      49.285  50.680  18.388  1.00  0.00    -0.139 NA
ENDROOT
BRANCH   1   6
ATOM      6  C   UNL     1      50.757  52.661  18.581  1.00  0.00    +0.146 C 
BRANCH   6   7
ATOM      7  N   UNL     1      51.300  53.396  19.743  1.00  0.00    -0.294 NA
ATOM      8  C   UNL     1      50.892  57.438  21.361  1.00  0.00    +0.219 C 
ATOM      9  O   UNL     1      49.787  57.905  21.638  1.00  0.00    -0.275 OA
ATOM     10  N   UNL     1      51.052  56.192  20.784  1.00  0.00    -0.340 N 
ATOM     11  C   UNL     1      49.873  55.357  20.556  1.00  0.00    +0.135 C 
ATOM     12  C   UNL     1      52.336  55.621  20.371  1.00  0.00    +0.135 C 
ATOM     13  C   UNL     1      50.209  53.857  20.636  1.00  0.00    +0.106 C 
ATOM     14  C   UNL     1      52.162  54.522  19.306  1.00  0.00    +0.106 C 
ATOM     15  C   UNL     1      52.146  58.230  21.635  1.00  0.00    +0.114 C 
ENDBRANCH   6   7
ENDBRANCH   1   6
BRANCH   2  16
ATOM     16  N   UNL     1      52.348  50.703  20.404  1.00  0.00    -0.313 N 
ATOM     17  H   UNL     1      53.150  50.104  20.160  1.00  0.00    +0.182 HD
BRANCH  16  18
ATOM     18  N   UNL     1      52.230  51.043  21.762  1.00  0.00    -0.250 NA
ATOM     19  H   UNL     1      51.720  51.921  21.885  1.00  0.00    +0.143 HD
ATOM     20  H   UNL     1      53.152  51.176  22.184  1.00  0.00    +0.143 HD
ENDBRANCH  16  18
ENDBRANCH   2  16
TORSDOF 4
ENDMDL
