MODEL 1
REMARK VINA RESULT:    -6.658      0.000      0.000
REMARK INTER + INTRA:          -9.869
REMARK INTER:                  -9.188
REMARK INTRA:                  -0.681
REMARK UNBOUND:                -0.681
REMARK SMILES CCN(C[C@](C)(CC)CO)c1ccc(F)cc1
REMARK SMILES IDX 5 1 6 2 7 3 8 4 4 5 3 6 2 7 1 8 11 9 12 10 17 11 13 12 16 13
REMARK SMILES IDX 14 14 15 15 9 16 10 17
REMARK H PARENT 10 18
ROOT
ATOM      1  C   UNL     1      50.934  50.177  19.691  1.00  0.00    +0.008 C 
ATOM      2  C   UNL     1      50.548  49.422  20.980  1.00  0.00    +0.016 C 
ENDROOT
BRANCH   1   3
ATOM      3  C   UNL     1      50.525  51.680  19.824  1.00  0.00    +0.007 C 
ATOM      4  C   UNL     1      50.865  52.364  21.144  1.00  0.00    +0.004 C 
ENDBRANCH   1   3
BRANCH   1   5
ATOM      5  C   UNL     1      50.221  49.548  18.457  1.00  0.00    +0.125 C 
BRANCH   5   6
ATOM      6  N   UNL     1      49.090  50.362  17.950  1.00  0.00    -0.371 N 
BRANCH   6   7
ATOM      7  C   UNL     1      49.342  51.083  16.684  1.00  0.00    +0.113 C 
ATOM      8  C   UNL     1      50.090  50.196  15.698  1.00  0.00    +0.027 C 
ENDBRANCH   6   7
BRANCH   6   9
ATOM      9  C   UNL     1      47.811  49.773  17.930  1.00  0.00    +0.037 A 
ATOM     10  C   UNL     1      47.594  48.640  18.737  1.00  0.00    +0.029 A 
ATOM     11  C   UNL     1      46.732  50.269  17.186  1.00  0.00    +0.029 A 
ATOM     12  C   UNL     1      46.352  48.006  18.779  1.00  0.00    +0.041 A 
ATOM     13  C   UNL     1      45.485  49.635  17.221  1.00  0.00    +0.041 A 
ATOM     14  C   UNL     1      45.308  48.509  18.016  1.00  0.00    +0.123 A 
ATOM     15  F   UNL     1      44.113  47.905  18.049  1.00  0.00    -0.207 F 
ENDBRANCH   6   9
ENDBRANCH   5   6
ENDBRANCH   1   5
BRANCH   1  16
ATOM     16  C   UNL     1      52.472  50.111  19.519  1.00  0.00    +0.164 C 
BRANCH  16  17
ATOM     17  O   UNL     1      52.979  48.820  19.857  1.00  0.00    -0.396 OA
ATOM     18  H   UNL     1      52.586  48.193  19.225  1.00  0.00    +0.210 HD
ENDBRANCH  16  17
ENDBRANCH   1  16
TORSDOF 7
ENDMDL
MODEL 2
REMARK VINA RESULT:    -6.554      5.164      7.254
REMARK INTER + INTRA:          -9.725
REMARK INTER:                  -9.004
REMARK INTRA:                  -0.722
REMARK UNBOUND:                -0.681
REMARK SMILES CCN(C[C@](C)(CC)CO)c1ccc(F)cc1
REMARK SMILES IDX 5 1 6 2 7 3 8 4 4 5 3 6 2 7 1 8 11 9 12 10 17 11 13 12 16 13
REMARK SMILES IDX 14 14 15 15 9 16 10 17
REMARK H PARENT 10 18
ROOT
ATOM      1  C   UNL     1      51.667  53.564  19.506  1.00  0.00    +0.008 C 
ATOM      2  C   UNL     1      50.571  53.102  18.524  1.00  0.00    +0.016 C 
ENDROOT
BRANCH   1   3
ATOM      3  C   UNL     1      51.342  53.029  20.939  1.00  0.00    +0.007 C 
ATOM      4  C   UNL     1      51.983  51.703  21.333  1.00  0.00    +0.004 C 
ENDBRANCH   1   3
BRANCH   1   5
ATOM      5  C   UNL     1      51.754  55.120  19.535  1.00  0.00    +0.125 C 
BRANCH   5   6
ATOM      6  N   UNL     1      51.332  55.710  20.828  1.00  0.00    -0.371 N 
BRANCH   6   7
ATOM      7  C   UNL     1      52.389  56.425  21.575  1.00  0.00    +0.113 C 
ATOM      8  C   UNL     1      53.337  57.137  20.621  1.00  0.00    +0.027 C 
ENDBRANCH   6   7
BRANCH   6   9
ATOM      9  C   UNL     1      50.132  56.446  20.855  1.00  0.00    +0.037 A 
ATOM     10  C   UNL     1      49.103  56.063  19.974  1.00  0.00    +0.029 A 
ATOM     11  C   UNL     1      49.886  57.511  21.733  1.00  0.00    +0.029 A 
ATOM     12  C   UNL     1      47.881  56.736  19.949  1.00  0.00    +0.041 A 
ATOM     13  C   UNL     1      48.664  58.192  21.709  1.00  0.00    +0.041 A 
ATOM     14  C   UNL     1      47.675  57.799  20.816  1.00  0.00    +0.123 A 
ATOM     15  F   UNL     1      46.505  58.451  20.796  1.00  0.00    -0.207 F 
ENDBRANCH   6   9
ENDBRANCH   5   6
ENDBRANCH   1   5
BRANCH   1  16
ATOM     16  C   UNL     1      53.021  52.954  19.062  1.00  0.00    +0.164 C 
BRANCH  16  17
ATOM     17  O   UNL     1      53.030  52.671  17.663  1.00  0.00    -0.396 OA
ATOM     18  H   UNL     1      52.728  51.751  17.564  1.00  0.00    +0.210 HD
ENDBRANCH  16  17
ENDBRANCH   1  16
TORSDOF 7
ENDMDL
MODEL 3
REMARK VINA RESULT:    -6.413      4.583      6.429
REMARK INTER + INTRA:          -9.531
REMARK INTER:                  -8.743
REMARK INTRA:                  -0.788
REMARK UNBOUND:                -0.681
REMARK SMILES CCN(C[C@](C)(CC)CO)c1ccc(F)cc1
REMARK SMILES IDX 5 1 6 2 7 3 8 4 4 5 3 6 2 7 1 8 11 9 12 10 17 11 13 12 16 13
REMARK SMILES IDX 14 14 15 15 9 16 10 17
REMARK H PARENT 10 18
ROOT
ATOM      1  C   UNL     1      51.135  52.272  19.192  1.00  0.00    +0.008 C 
ATOM      2  C   UNL     1      50.975  51.171  18.124  1.00  0.00    +0.016 C 
ENDROOT
BRANCH   1   3
ATOM      3  C   UNL     1      51.679  51.641  20.515  1.00  0.00    +0.007 C 
ATOM      4  C   UNL     1      51.631  52.520  21.759  1.00  0.00    +0.004 C 
ENDBRANCH   1   3
BRANCH   1   5
ATOM      5  C   UNL     1      49.767  52.966  19.468  1.00  0.00    +0.125 C 
BRANCH   5   6
ATOM      6  N   UNL     1      49.667  54.326  18.885  1.00  0.00    -0.371 N 
BRANCH   6   7
ATOM      7  C   UNL     1      48.775  54.452  17.713  1.00  0.00    +0.113 C 
ATOM      8  C   UNL     1      48.037  53.146  17.454  1.00  0.00    +0.027 C 
ENDBRANCH   6   7
BRANCH   6   9
ATOM      9  C   UNL     1      49.471  55.407  19.766  1.00  0.00    +0.037 A 
ATOM     10  C   UNL     1      48.246  56.097  19.700  1.00  0.00    +0.029 A 
ATOM     11  C   UNL     1      50.405  55.811  20.730  1.00  0.00    +0.029 A 
ATOM     12  C   UNL     1      47.972  57.173  20.546  1.00  0.00    +0.041 A 
ATOM     13  C   UNL     1      50.137  56.891  21.578  1.00  0.00    +0.041 A 
ATOM     14  C   UNL     1      48.924  57.562  21.477  1.00  0.00    +0.123 A 
ATOM     15  F   UNL     1      48.670  58.595  22.291  1.00  0.00    -0.207 F 
ENDBRANCH   6   9
ENDBRANCH   5   6
ENDBRANCH   1   5
BRANCH   1  16
ATOM     16  C   UNL     1      52.174  53.305  18.689  1.00  0.00    +0.164 C 
BRANCH  16  17
ATOM     17  O   UNL     1      53.079  52.720  17.754  1.00  0.00    -0.396 OA
ATOM     18  H   UNL     1      53.970  53.020  18.005  1.00  0.00    +0.210 HD
ENDBRANCH  16  17
ENDBRANCH   1  16
TORSDOF 7
ENDMDL
MODEL 4
REMARK VINA RESULT:    -6.071      3.315      5.777
REMARK INTER + INTRA:          -9.058
REMARK INTER:                  -8.136
REMARK INTRA:                  -0.922
REMARK UNBOUND:                -0.681
REMARK SMILES CCN(C[C@](C)(CC)CO)c1ccc(F)cc1
REMARK SMILES IDX 5 1 6 2 7 3 8 4 4 5 3 6 2 7 1 8 11 9 12 10 17 11 13 12 16 13
REMARK SMILES IDX 14 14 15 15 9 16 10 17
REMARK H PARENT 10 18
ROOT
ATOM      1  C   UNL     1      46.193  48.344  17.073  1.00  0.00    +0.008 C 
ATOM      2  C   UNL     1      47.180  47.161  16.996  1.00  0.00    +0.016 C 
ENDROOT
BRANCH   1   3
ATOM      3  C   UNL     1      45.474  48.512  15.695  1.00  0.00    +0.007 C 
ATOM      4  C   UNL     1      46.263  48.095  14.459  1.00  0.00    +0.004 C 
ENDBRANCH   1   3
BRANCH   1   5
ATOM      5  C   UNL     1      46.947  49.660  17.434  1.00  0.00    +0.125 C 
BRANCH   5   6
ATOM      6  N   UNL     1      48.408  49.587  17.194  1.00  0.00    -0.371 N 
BRANCH   6   7
ATOM      7  C   UNL     1      48.893  50.307  15.998  1.00  0.00    +0.113 C 
ATOM      8  C   UNL     1      49.708  49.382  15.104  1.00  0.00    +0.027 C 
ENDBRANCH   6   7
BRANCH   6   9
ATOM      9  C   UNL     1      49.267  49.820  18.286  1.00  0.00    +0.037 A 
ATOM     10  C   UNL     1      49.759  51.126  18.470  1.00  0.00    +0.029 A 
ATOM     11  C   UNL     1      49.629  48.840  19.221  1.00  0.00    +0.029 A 
ATOM     12  C   UNL     1      50.607  51.438  19.534  1.00  0.00    +0.041 A 
ATOM     13  C   UNL     1      50.481  49.148  20.287  1.00  0.00    +0.041 A 
ATOM     14  C   UNL     1      50.963  50.443  20.432  1.00  0.00    +0.123 A 
ATOM     15  F   UNL     1      51.777  50.735  21.454  1.00  0.00    -0.207 F 
ENDBRANCH   6   9
ENDBRANCH   5   6
ENDBRANCH   1   5
BRANCH   1  16
ATOM     16  C   UNL     1      45.117  48.026  18.141  1.00  0.00    +0.164 C 
BRANCH  16  17
ATOM     17  O   UNL     1      44.687  46.668  18.058  1.00  0.00    -0.396 OA
ATOM     18  H   UNL     1      45.164  46.270  17.309  1.00  0.00    +0.210 HD
ENDBRANCH  16  17
ENDBRANCH   1  16
TORSDOF 7
ENDMDL
MODEL 5
REMARK VINA RESULT:    -6.055      3.580      6.100
REMARK INTER + INTRA:          -9.037
REMARK INTER:                  -8.156
REMARK INTRA:                  -0.881
REMARK UNBOUND:                -0.681
REMARK SMILES CCN(C[C@](C)(CC)CO)c1ccc(F)cc1
REMARK SMILES IDX 5 1 6 2 7 3 8 4 4 5 3 6 2 7 1 8 11 9 12 10 17 11 13 12 16 13
REMARK SMILES IDX 14 14 15 15 9 16 10 17
REMARK H PARENT 10 18
ROOT
ATOM      1  C   UNL     1      49.543  51.210  17.500  1.00  0.00    +0.008 C 
ATOM      2  C   UNL     1      48.739  52.442  17.037  1.00  0.00    +0.016 C 
ENDROOT
BRANCH   1   3
ATOM      3  C   UNL     1      48.629  50.288  18.372  1.00  0.00    +0.007 C 
ATOM      4  C   UNL     1      48.928  48.794  18.328  1.00  0.00    +0.004 C 
ENDBRANCH   1   3
BRANCH   1   5
ATOM      5  C   UNL     1      50.786  51.650  18.330  1.00  0.00    +0.125 C 
BRANCH   5   6
ATOM      6  N   UNL     1      50.523  51.736  19.786  1.00  0.00    -0.371 N 
BRANCH   6   7
ATOM      7  C   UNL     1      51.234  50.742  20.620  1.00  0.00    +0.113 C 
ATOM      8  C   UNL     1      52.233  49.953  19.785  1.00  0.00    +0.027 C 
ENDBRANCH   6   7
BRANCH   6   9
ATOM      9  C   UNL     1      50.574  53.006  20.391  1.00  0.00    +0.037 A 
ATOM     10  C   UNL     1      51.512  53.209  21.421  1.00  0.00    +0.029 A 
ATOM     11  C   UNL     1      49.775  54.091  20.004  1.00  0.00    +0.029 A 
ATOM     12  C   UNL     1      51.630  54.442  22.063  1.00  0.00    +0.041 A 
ATOM     13  C   UNL     1      49.886  55.328  20.647  1.00  0.00    +0.041 A 
ATOM     14  C   UNL     1      50.811  55.491  21.671  1.00  0.00    +0.123 A 
ATOM     15  F   UNL     1      50.917  56.678  22.284  1.00  0.00    -0.207 F 
ENDBRANCH   6   9
ENDBRANCH   5   6
ENDBRANCH   1   5
BRANCH   1  16
ATOM     16  C   UNL     1      49.983  50.406  16.251  1.00  0.00    +0.164 C 
BRANCH  16  17
ATOM     17  O   UNL     1      51.405  50.353  16.140  1.00  0.00    -0.396 OA
ATOM     18  H   UNL     1      51.637  49.419  15.992  1.00  0.00    +0.210 HD
ENDBRANCH  16  17
ENDBRANCH   1  16
TORSDOF 7
ENDMDL
