MODEL 1
REMARK VINA RESULT:    -8.254      0.000      0.000
REMARK INTER + INTRA:         -12.818
REMARK INTER:                 -11.631
REMARK INTRA:                  -1.186
REMARK UNBOUND:                -1.186
REMARK SMILES N#CCCN(C[C@H](O)c1ccccc1N)c1ccccc1
REMARK SMILES IDX 6 1 5 2 16 3 19 4 18 5 20 6 17 7 21 8 4 9 3 10 2 11 1 12
REMARK SMILES IDX 7 13 9 14 10 15 14 16 11 17 13 18 12 19 15 20 8 23
REMARK H PARENT 15 21 15 22 8 24
ROOT
ATOM      1  C   UNL     1      50.840  54.381  18.830  1.00  0.00    +0.153 C 
ENDROOT
BRANCH   1   2
ATOM      2  N   UNL     1      50.558  54.696  20.260  1.00  0.00    -0.368 N 
BRANCH   2   3
ATOM      3  C   UNL     1      49.754  55.794  20.593  1.00  0.00    +0.037 A 
ATOM      4  C   UNL     1      48.073  58.006  21.165  1.00  0.00    +0.000 A 
ATOM      5  C   UNL     1      49.310  57.885  21.785  1.00  0.00    +0.002 A 
ATOM      6  C   UNL     1      47.666  57.038  20.255  1.00  0.00    +0.002 A 
ATOM      7  C   UNL     1      50.139  56.793  21.499  1.00  0.00    +0.026 A 
ATOM      8  C   UNL     1      48.499  55.950  19.975  1.00  0.00    +0.026 A 
ENDBRANCH   2   3
BRANCH   2   9
ATOM      9  C   UNL     1      51.686  54.438  21.188  1.00  0.00    +0.132 C 
BRANCH   9  10
ATOM     10  C   UNL     1      51.322  53.319  22.164  1.00  0.00    +0.141 C 
ATOM     11  C   UNL     1      51.855  52.039  21.691  1.00  0.00    +0.064 C 
ATOM     12  N   UNL     1      52.280  51.031  21.305  1.00  0.00    -0.198 NA
ENDBRANCH   9  10
ENDBRANCH   2   9
ENDBRANCH   1   2
BRANCH   1  13
ATOM     13  C   UNL     1      50.965  52.850  18.607  1.00  0.00    +0.166 C 
BRANCH  13  14
ATOM     14  C   UNL     1      49.737  52.142  18.043  1.00  0.00    +0.005 A 
ATOM     15  C   UNL     1      48.634  52.864  17.545  1.00  0.00    +0.008 A 
ATOM     16  C   UNL     1      49.651  50.732  18.065  1.00  0.00    +0.037 A 
ATOM     17  C   UNL     1      47.480  52.213  17.101  1.00  0.00    +0.001 A 
ATOM     18  C   UNL     1      48.464  50.096  17.674  1.00  0.00    +0.026 A 
ATOM     19  C   UNL     1      47.392  50.830  17.172  1.00  0.00    +0.002 A 
BRANCH  16  20
ATOM     20  N   UNL     1      50.659  49.954  18.674  1.00  0.00    -0.398 N 
ATOM     21  H   UNL     1      50.321  49.058  19.008  1.00  0.00    +0.156 HD
ATOM     22  H   UNL     1      51.441  49.833  18.021  1.00  0.00    +0.156 HD
ENDBRANCH  16  20
ENDBRANCH  13  14
BRANCH  13  23
ATOM     23  O   UNL     1      52.095  52.648  17.728  1.00  0.00    -0.386 OA
ATOM     24  H   UNL     1      52.802  52.366  18.345  1.00  0.00    +0.211 HD
ENDBRANCH  13  23
ENDBRANCH   1  13
TORSDOF 8
ENDMDL
MODEL 2
REMARK VINA RESULT:    -7.846      1.803      2.938
REMARK INTER + INTRA:         -12.243
REMARK INTER:                 -11.671
REMARK INTRA:                  -0.573
REMARK UNBOUND:                -1.186
REMARK SMILES N#CCCN(C[C@H](O)c1ccccc1N)c1ccccc1
REMARK SMILES IDX 6 1 5 2 16 3 19 4 18 5 20 6 17 7 21 8 4 9 3 10 2 11 1 12
REMARK SMILES IDX 7 13 9 14 10 15 14 16 11 17 13 18 12 19 15 20 8 23
REMARK H PARENT 15 21 15 22 8 24
ROOT
ATOM      1  C   UNL     1      50.480  54.063  19.328  1.00  0.00    +0.153 C 
ENDROOT
BRANCH   1   2
ATOM      2  N   UNL     1      50.644  54.954  20.512  1.00  0.00    -0.368 N 
BRANCH   2   3
ATOM      3  C   UNL     1      49.744  56.005  20.732  1.00  0.00    +0.037 A 
ATOM      4  C   UNL     1      47.884  58.121  21.067  1.00  0.00    +0.000 A 
ATOM      5  C   UNL     1      49.034  58.066  21.845  1.00  0.00    +0.002 A 
ATOM      6  C   UNL     1      47.654  57.135  20.116  1.00  0.00    +0.002 A 
ATOM      7  C   UNL     1      49.952  57.022  21.676  1.00  0.00    +0.026 A 
ATOM      8  C   UNL     1      48.575  56.094  19.953  1.00  0.00    +0.026 A 
ENDBRANCH   2   3
BRANCH   2   9
ATOM      9  C   UNL     1      52.050  55.242  20.885  1.00  0.00    +0.132 C 
BRANCH   9  10
ATOM     10  C   UNL     1      52.613  56.358  20.005  1.00  0.00    +0.141 C 
ATOM     11  C   UNL     1      53.601  57.142  20.750  1.00  0.00    +0.064 C 
ATOM     12  N   UNL     1      54.381  57.756  21.350  1.00  0.00    -0.198 NA
ENDBRANCH   9  10
ENDBRANCH   2   9
ENDBRANCH   1   2
BRANCH   1  13
ATOM     13  C   UNL     1      51.554  52.942  19.316  1.00  0.00    +0.166 C 
BRANCH  13  14
ATOM     14  C   UNL     1      51.048  51.514  19.498  1.00  0.00    +0.005 A 
ATOM     15  C   UNL     1      50.254  50.884  18.520  1.00  0.00    +0.008 A 
ATOM     16  C   UNL     1      51.318  50.807  20.691  1.00  0.00    +0.037 A 
ATOM     17  C   UNL     1      49.730  49.605  18.724  1.00  0.00    +0.001 A 
ATOM     18  C   UNL     1      50.734  49.550  20.907  1.00  0.00    +0.026 A 
ATOM     19  C   UNL     1      49.963  48.942  19.920  1.00  0.00    +0.002 A 
BRANCH  16  20
ATOM     20  N   UNL     1      51.989  51.428  21.766  1.00  0.00    -0.398 N 
ATOM     21  H   UNL     1      52.854  50.961  22.016  1.00  0.00    +0.156 HD
ATOM     22  H   UNL     1      52.155  52.415  21.542  1.00  0.00    +0.156 HD
ENDBRANCH  16  20
ENDBRANCH  13  14
BRANCH  13  23
ATOM     23  O   UNL     1      52.261  53.056  18.060  1.00  0.00    -0.386 OA
ATOM     24  H   UNL     1      52.519  54.002  18.041  1.00  0.00    +0.211 HD
ENDBRANCH  13  23
ENDBRANCH   1  13
TORSDOF 8
ENDMDL
MODEL 3
REMARK VINA RESULT:    -7.643      1.683      2.636
REMARK INTER + INTRA:         -11.957
REMARK INTER:                 -10.881
REMARK INTRA:                  -1.075
REMARK UNBOUND:                -1.186
REMARK SMILES N#CCCN(C[C@H](O)c1ccccc1N)c1ccccc1
REMARK SMILES IDX 6 1 5 2 16 3 19 4 18 5 20 6 17 7 21 8 4 9 3 10 2 11 1 12
REMARK SMILES IDX 7 13 9 14 10 15 14 16 11 17 13 18 12 19 15 20 8 23
REMARK H PARENT 15 21 15 22 8 24
ROOT
ATOM      1  C   UNL     1      51.329  54.968  18.770  1.00  0.00    +0.153 C 
ENDROOT
BRANCH   1   2
ATOM      2  N   UNL     1      50.966  55.483  20.122  1.00  0.00    -0.368 N 
BRANCH   2   3
ATOM      3  C   UNL     1      49.893  56.371  20.271  1.00  0.00    +0.037 A 
ATOM      4  C   UNL     1      47.728  58.157  20.687  1.00  0.00    +0.000 A 
ATOM      5  C   UNL     1      47.847  57.462  19.490  1.00  0.00    +0.002 A 
ATOM      6  C   UNL     1      48.676  57.965  21.685  1.00  0.00    +0.002 A 
ATOM      7  C   UNL     1      48.915  56.579  19.288  1.00  0.00    +0.026 A 
ATOM      8  C   UNL     1      49.741  57.082  21.476  1.00  0.00    +0.026 A 
ENDBRANCH   2   3
BRANCH   2   9
ATOM      9  C   UNL     1      52.117  55.729  21.023  1.00  0.00    +0.132 C 
BRANCH   9  10
ATOM     10  C   UNL     1      53.096  56.709  20.375  1.00  0.00    +0.141 C 
ATOM     11  C   UNL     1      53.418  57.795  21.305  1.00  0.00    +0.064 C 
ATOM     12  N   UNL     1      53.663  58.650  22.050  1.00  0.00    -0.198 NA
ENDBRANCH   9  10
ENDBRANCH   2   9
ENDBRANCH   1   2
BRANCH   1  13
ATOM     13  C   UNL     1      51.390  53.417  18.759  1.00  0.00    +0.166 C 
BRANCH  13  14
ATOM     14  C   UNL     1      50.176  52.692  18.186  1.00  0.00    +0.005 A 
ATOM     15  C   UNL     1      49.012  53.390  17.809  1.00  0.00    +0.008 A 
ATOM     16  C   UNL     1      50.170  51.283  18.076  1.00  0.00    +0.037 A 
ATOM     17  C   UNL     1      47.874  52.716  17.357  1.00  0.00    +0.001 A 
ATOM     18  C   UNL     1      49.001  50.617  17.679  1.00  0.00    +0.026 A 
ATOM     19  C   UNL     1      47.866  51.330  17.300  1.00  0.00    +0.002 A 
BRANCH  16  20
ATOM     20  N   UNL     1      51.248  50.514  18.561  1.00  0.00    -0.398 N 
ATOM     21  H   UNL     1      51.067  50.107  19.472  1.00  0.00    +0.156 HD
ATOM     22  H   UNL     1      51.489  49.790  17.875  1.00  0.00    +0.156 HD
ENDBRANCH  16  20
ENDBRANCH  13  14
BRANCH  13  23
ATOM     23  O   UNL     1      52.576  53.052  18.015  1.00  0.00    -0.386 OA
ATOM     24  H   UNL     1      52.629  52.083  18.153  1.00  0.00    +0.211 HD
ENDBRANCH  13  23
ENDBRANCH   1  13
TORSDOF 8
ENDMDL
MODEL 4
REMARK VINA RESULT:    -7.604      1.729      5.544
REMARK INTER + INTRA:         -11.902
REMARK INTER:                 -11.181
REMARK INTRA:                  -0.720
REMARK UNBOUND:                -1.186
REMARK SMILES N#CCCN(C[C@H](O)c1ccccc1N)c1ccccc1
REMARK SMILES IDX 6 1 5 2 16 3 19 4 18 5 20 6 17 7 21 8 4 9 3 10 2 11 1 12
REMARK SMILES IDX 7 13 9 14 10 15 14 16 11 17 13 18 12 19 15 20 8 23
REMARK H PARENT 15 21 15 22 8 24
ROOT
ATOM      1  C   UNL     1      50.537  53.328  20.522  1.00  0.00    +0.153 C 
ENDROOT
BRANCH   1   2
ATOM      2  N   UNL     1      50.740  53.027  19.076  1.00  0.00    -0.368 N 
BRANCH   2   3
ATOM      3  C   UNL     1      49.692  52.490  18.316  1.00  0.00    +0.037 A 
ATOM      4  C   UNL     1      47.517  51.504  16.785  1.00  0.00    +0.000 A 
ATOM      5  C   UNL     1      48.316  50.632  17.513  1.00  0.00    +0.002 A 
ATOM      6  C   UNL     1      47.787  52.867  16.817  1.00  0.00    +0.002 A 
ATOM      7  C   UNL     1      49.387  51.121  18.271  1.00  0.00    +0.026 A 
ATOM      8  C   UNL     1      48.859  53.348  17.575  1.00  0.00    +0.026 A 
ENDBRANCH   2   3
BRANCH   2   9
ATOM      9  C   UNL     1      52.090  52.524  18.729  1.00  0.00    +0.132 C 
BRANCH   9  10
ATOM     10  C   UNL     1      52.741  51.870  19.948  1.00  0.00    +0.141 C 
ATOM     11  C   UNL     1      52.604  50.414  19.876  1.00  0.00    +0.064 C 
ATOM     12  N   UNL     1      52.487  49.261  19.810  1.00  0.00    -0.198 NA
ENDBRANCH   9  10
ENDBRANCH   2   9
ENDBRANCH   1   2
BRANCH   1  13
ATOM     13  C   UNL     1      51.070  54.741  20.881  1.00  0.00    +0.166 C 
BRANCH  13  14
ATOM     14  C   UNL     1      50.031  55.852  20.993  1.00  0.00    +0.005 A 
ATOM     15  C   UNL     1      48.822  55.806  20.271  1.00  0.00    +0.008 A 
ATOM     16  C   UNL     1      50.287  56.994  21.786  1.00  0.00    +0.037 A 
ATOM     17  C   UNL     1      47.907  56.861  20.317  1.00  0.00    +0.001 A 
ATOM     18  C   UNL     1      49.388  58.071  21.773  1.00  0.00    +0.026 A 
ATOM     19  C   UNL     1      48.194  57.997  21.061  1.00  0.00    +0.002 A 
BRANCH  16  20
ATOM     20  N   UNL     1      51.533  57.167  22.425  1.00  0.00    -0.398 N 
ATOM     21  H   UNL     1      51.768  56.404  23.050  1.00  0.00    +0.156 HD
ATOM     22  H   UNL     1      52.264  57.305  21.719  1.00  0.00    +0.156 HD
ENDBRANCH  16  20
ENDBRANCH  13  14
BRANCH  13  23
ATOM     23  O   UNL     1      51.787  54.611  22.130  1.00  0.00    -0.386 OA
ATOM     24  H   UNL     1      52.524  55.249  22.025  1.00  0.00    +0.211 HD
ENDBRANCH  13  23
ENDBRANCH   1  13
TORSDOF 8
ENDMDL
