MODEL 1
REMARK VINA RESULT:    -6.905      0.000      0.000
REMARK INTER + INTRA:          -9.078
REMARK INTER:                  -8.722
REMARK INTRA:                  -0.356
REMARK UNBOUND:                -0.356
REMARK SMILES CC(C)(C)C(=O)NCC(=O)N[C@@H]1CCCC[C@@H]1O
REMARK SMILES IDX 9 1 10 2 11 3 8 5 7 6 5 7 6 8 2 10 1 11 3 12 4 13 12 14
REMARK SMILES IDX 13 15 17 16 14 17 16 18 15 19 18 20
REMARK H PARENT 11 4 7 9 18 21
ROOT
ATOM      1  C   UNL     1      50.733  52.368  20.301  1.00  0.00    +0.239 C 
ATOM      2  O   UNL     1      50.867  52.013  21.472  1.00  0.00    -0.273 OA
ATOM      3  N   UNL     1      50.370  53.646  19.933  1.00  0.00    -0.349 N 
ATOM      4  H   UNL     1      50.607  53.943  18.994  1.00  0.00    +0.163 HD
ENDROOT
BRANCH   1   5
ATOM      5  C   UNL     1      51.018  51.432  19.123  1.00  0.00    +0.216 C 
BRANCH   5   6
ATOM      6  N   UNL     1      49.760  50.979  18.557  1.00  0.00    -0.347 N 
ATOM      7  C   UNL     1      49.332  49.683  18.746  1.00  0.00    +0.225 C 
ATOM      8  O   UNL     1      49.874  48.927  19.549  1.00  0.00    -0.275 OA
ATOM      9  H   UNL     1      49.493  51.438  17.694  1.00  0.00    +0.164 HD
BRANCH   7  10
ATOM     10  C   UNL     1      48.130  49.257  17.880  1.00  0.00    +0.041 C 
ATOM     11  C   UNL     1      47.084  48.538  18.745  1.00  0.00    +0.021 C 
ATOM     12  C   UNL     1      47.503  50.492  17.212  1.00  0.00    +0.021 C 
ATOM     13  C   UNL     1      48.610  48.293  16.781  1.00  0.00    +0.021 C 
ENDBRANCH   7  10
ENDBRANCH   5   6
ENDBRANCH   1   5
BRANCH   3  14
ATOM     14  C   UNL     1      50.268  54.713  20.924  1.00  0.00    +0.110 C 
ATOM     15  C   UNL     1      49.397  55.851  20.374  1.00  0.00    +0.027 C 
ATOM     16  C   UNL     1      51.671  55.223  21.326  1.00  0.00    +0.136 C 
ATOM     17  C   UNL     1      49.311  57.015  21.356  1.00  0.00    +0.002 C 
ATOM     18  C   UNL     1      51.574  56.400  22.298  1.00  0.00    +0.034 C 
ATOM     19  C   UNL     1      50.693  57.524  21.754  1.00  0.00    +0.003 C 
BRANCH  16  20
ATOM     20  O   UNL     1      52.381  55.635  20.148  1.00  0.00    -0.391 OA
ATOM     21  H   UNL     1      53.290  55.847  20.424  1.00  0.00    +0.211 HD
ENDBRANCH  16  20
ENDBRANCH   3  14
TORSDOF 5
ENDMDL
MODEL 2
REMARK VINA RESULT:    -6.901      1.882      2.525
REMARK INTER + INTRA:          -9.073
REMARK INTER:                  -8.525
REMARK INTRA:                  -0.548
REMARK UNBOUND:                -0.356
REMARK SMILES CC(C)(C)C(=O)NCC(=O)N[C@@H]1CCCC[C@@H]1O
REMARK SMILES IDX 9 1 10 2 11 3 8 5 7 6 5 7 6 8 2 10 1 11 3 12 4 13 12 14
REMARK SMILES IDX 13 15 17 16 14 17 16 18 15 19 18 20
REMARK H PARENT 11 4 7 9 18 21
ROOT
ATOM      1  C   UNL     1      52.401  52.369  18.562  1.00  0.00    +0.239 C 
ATOM      2  O   UNL     1      53.331  53.037  18.109  1.00  0.00    -0.273 OA
ATOM      3  N   UNL     1      51.671  52.740  19.671  1.00  0.00    -0.349 N 
ATOM      4  H   UNL     1      50.746  52.340  19.773  1.00  0.00    +0.163 HD
ENDROOT
BRANCH   1   5
ATOM      5  C   UNL     1      51.918  51.078  17.895  1.00  0.00    +0.216 C 
BRANCH   5   6
ATOM      6  N   UNL     1      50.671  51.339  17.197  1.00  0.00    -0.347 N 
ATOM      7  C   UNL     1      49.473  50.887  17.706  1.00  0.00    +0.225 C 
ATOM      8  O   UNL     1      49.379  50.434  18.845  1.00  0.00    -0.275 OA
ATOM      9  H   UNL     1      50.755  51.405  16.189  1.00  0.00    +0.164 HD
BRANCH   7  10
ATOM     10  C   UNL     1      48.271  50.993  16.747  1.00  0.00    +0.041 C 
ATOM     11  C   UNL     1      47.865  52.464  16.571  1.00  0.00    +0.021 C 
ATOM     12  C   UNL     1      48.633  50.379  15.387  1.00  0.00    +0.021 C 
ATOM     13  C   UNL     1      47.079  50.219  17.337  1.00  0.00    +0.021 C 
ENDBRANCH   7  10
ENDBRANCH   5   6
ENDBRANCH   1   5
BRANCH   3  14
ATOM     14  C   UNL     1      51.864  54.045  20.296  1.00  0.00    +0.110 C 
ATOM     15  C   UNL     1      51.541  53.956  21.794  1.00  0.00    +0.027 C 
ATOM     16  C   UNL     1      51.000  55.121  19.598  1.00  0.00    +0.136 C 
ATOM     17  C   UNL     1      51.675  55.314  22.477  1.00  0.00    +0.002 C 
ATOM     18  C   UNL     1      51.128  56.474  20.299  1.00  0.00    +0.034 C 
ATOM     19  C   UNL     1      50.822  56.379  21.794  1.00  0.00    +0.003 C 
BRANCH  16  20
ATOM     20  O   UNL     1      49.627  54.706  19.610  1.00  0.00    -0.391 OA
ATOM     21  H   UNL     1      49.467  54.277  20.470  1.00  0.00    +0.211 HD
ENDBRANCH  16  20
ENDBRANCH   3  14
TORSDOF 5
ENDMDL
MODEL 3
REMARK VINA RESULT:    -6.511      1.895      7.139
REMARK INTER + INTRA:          -8.581
REMARK INTER:                  -8.187
REMARK INTRA:                  -0.393
REMARK UNBOUND:                -0.356
REMARK SMILES CC(C)(C)C(=O)NCC(=O)N[C@@H]1CCCC[C@@H]1O
REMARK SMILES IDX 9 1 10 2 11 3 8 5 7 6 5 7 6 8 2 10 1 11 3 12 4 13 12 14
REMARK SMILES IDX 13 15 17 16 14 17 16 18 15 19 18 20
REMARK H PARENT 11 4 7 9 18 21
ROOT
ATOM      1  C   UNL     1      50.578  52.662  18.366  1.00  0.00    +0.239 C 
ATOM      2  O   UNL     1      49.647  53.466  18.417  1.00  0.00    -0.273 OA
ATOM      3  N   UNL     1      50.435  51.364  17.922  1.00  0.00    -0.349 N 
ATOM      4  H   UNL     1      51.270  50.891  17.595  1.00  0.00    +0.163 HD
ENDROOT
BRANCH   1   5
ATOM      5  C   UNL     1      52.013  53.045  18.736  1.00  0.00    +0.216 C 
BRANCH   5   6
ATOM      6  N   UNL     1      52.000  54.307  19.455  1.00  0.00    -0.347 N 
ATOM      7  C   UNL     1      51.910  54.331  20.830  1.00  0.00    +0.225 C 
ATOM      8  O   UNL     1      52.039  53.315  21.510  1.00  0.00    -0.275 OA
ATOM      9  H   UNL     1      51.589  55.081  18.946  1.00  0.00    +0.164 HD
BRANCH   7  10
ATOM     10  C   UNL     1      51.637  55.717  21.445  1.00  0.00    +0.041 C 
ATOM     11  C   UNL     1      51.734  55.644  22.976  1.00  0.00    +0.021 C 
ATOM     12  C   UNL     1      52.648  56.738  20.900  1.00  0.00    +0.021 C 
ATOM     13  C   UNL     1      50.219  56.175  21.061  1.00  0.00    +0.021 C 
ENDBRANCH   7  10
ENDBRANCH   5   6
ENDBRANCH   1   5
BRANCH   3  14
ATOM     14  C   UNL     1      49.181  50.904  17.333  1.00  0.00    +0.110 C 
ATOM     15  C   UNL     1      48.638  49.713  18.134  1.00  0.00    +0.027 C 
ATOM     16  C   UNL     1      49.377  50.538  15.844  1.00  0.00    +0.136 C 
ATOM     17  C   UNL     1      47.355  49.162  17.518  1.00  0.00    +0.002 C 
ATOM     18  C   UNL     1      48.090  49.972  15.240  1.00  0.00    +0.034 C 
ATOM     19  C   UNL     1      47.543  48.797  16.049  1.00  0.00    +0.003 C 
BRANCH  16  20
ATOM     20  O   UNL     1      50.425  49.564  15.729  1.00  0.00    -0.391 OA
ATOM     21  H   UNL     1      51.266  50.055  15.703  1.00  0.00    +0.211 HD
ENDBRANCH  16  20
ENDBRANCH   3  14
TORSDOF 5
ENDMDL
MODEL 4
REMARK VINA RESULT:    -6.456      3.151      6.750
REMARK INTER + INTRA:          -8.511
REMARK INTER:                  -7.983
REMARK INTRA:                  -0.528
REMARK UNBOUND:                -0.356
REMARK SMILES CC(C)(C)C(=O)NCC(=O)N[C@@H]1CCCC[C@@H]1O
REMARK SMILES IDX 9 1 10 2 11 3 8 5 7 6 5 7 6 8 2 10 1 11 3 12 4 13 12 14
REMARK SMILES IDX 13 15 17 16 14 17 16 18 15 19 18 20
REMARK H PARENT 11 4 7 9 18 21
ROOT
ATOM      1  C   UNL     1      48.655  52.729  17.198  1.00  0.00    +0.239 C 
ATOM      2  O   UNL     1      48.134  53.351  16.272  1.00  0.00    -0.273 OA
ATOM      3  N   UNL     1      48.375  51.408  17.475  1.00  0.00    -0.349 N 
ATOM      4  H   UNL     1      49.065  50.889  18.007  1.00  0.00    +0.163 HD
ENDROOT
BRANCH   1   5
ATOM      5  C   UNL     1      49.722  53.349  18.105  1.00  0.00    +0.216 C 
BRANCH   5   6
ATOM      6  N   UNL     1      50.139  52.369  19.091  1.00  0.00    -0.347 N 
ATOM      7  C   UNL     1      51.418  51.857  19.075  1.00  0.00    +0.225 C 
ATOM      8  O   UNL     1      52.305  52.340  18.376  1.00  0.00    -0.275 OA
ATOM      9  H   UNL     1      49.398  51.765  19.429  1.00  0.00    +0.164 HD
BRANCH   7  10
ATOM     10  C   UNL     1      51.650  50.642  19.995  1.00  0.00    +0.041 C 
ATOM     11  C   UNL     1      51.851  51.109  21.445  1.00  0.00    +0.021 C 
ATOM     12  C   UNL     1      50.450  49.686  19.910  1.00  0.00    +0.021 C 
ATOM     13  C   UNL     1      52.912  49.890  19.538  1.00  0.00    +0.021 C 
ENDBRANCH   7  10
ENDBRANCH   5   6
ENDBRANCH   1   5
BRANCH   3  14
ATOM     14  C   UNL     1      47.542  50.611  16.580  1.00  0.00    +0.110 C 
ATOM     15  C   UNL     1      46.572  49.751  17.400  1.00  0.00    +0.027 C 
ATOM     16  C   UNL     1      48.417  49.740  15.649  1.00  0.00    +0.136 C 
ATOM     17  C   UNL     1      45.720  48.858  16.503  1.00  0.00    +0.002 C 
ATOM     18  C   UNL     1      47.555  48.836  14.765  1.00  0.00    +0.034 C 
ATOM     19  C   UNL     1      46.578  47.994  15.585  1.00  0.00    +0.003 C 
BRANCH  16  20
ATOM     20  O   UNL     1      49.295  48.930  16.446  1.00  0.00    -0.391 OA
ATOM     21  H   UNL     1      49.222  48.019  16.110  1.00  0.00    +0.211 HD
ENDBRANCH  16  20
ENDBRANCH   3  14
TORSDOF 5
ENDMDL
MODEL 5
REMARK VINA RESULT:    -6.163      4.919      8.553
REMARK INTER + INTRA:          -8.141
REMARK INTER:                  -7.824
REMARK INTRA:                  -0.317
REMARK UNBOUND:                -0.356
REMARK SMILES CC(C)(C)C(=O)NCC(=O)N[C@@H]1CCCC[C@@H]1O
REMARK SMILES IDX 9 1 10 2 11 3 8 5 7 6 5 7 6 8 2 10 1 11 3 12 4 13 12 14
REMARK SMILES IDX 13 15 17 16 14 17 16 18 15 19 18 20
REMARK H PARENT 11 4 7 9 18 21
ROOT
ATOM      1  C   UNL     1      48.001  57.923  19.861  1.00  0.00    +0.239 C 
ATOM      2  O   UNL     1      47.132  57.585  20.665  1.00  0.00    -0.273 OA
ATOM      3  N   UNL     1      49.309  57.495  19.935  1.00  0.00    -0.349 N 
ATOM      4  H   UNL     1      49.858  57.532  19.084  1.00  0.00    +0.163 HD
ENDROOT
BRANCH   1   5
ATOM      5  C   UNL     1      47.697  58.810  18.650  1.00  0.00    +0.216 C 
BRANCH   5   6
ATOM      6  N   UNL     1      46.958  59.981  19.089  1.00  0.00    -0.347 N 
ATOM      7  C   UNL     1      46.169  60.685  18.206  1.00  0.00    +0.225 C 
ATOM      8  O   UNL     1      45.896  60.253  17.088  1.00  0.00    -0.275 OA
ATOM      9  H   UNL     1      47.395  60.500  19.842  1.00  0.00    +0.164 HD
BRANCH   7  10
ATOM     10  C   UNL     1      45.659  62.044  18.723  1.00  0.00    +0.041 C 
ATOM     11  C   UNL     1      44.229  61.899  19.265  1.00  0.00    +0.021 C 
ATOM     12  C   UNL     1      46.592  62.567  19.826  1.00  0.00    +0.021 C 
ATOM     13  C   UNL     1      45.647  63.058  17.565  1.00  0.00    +0.021 C 
ENDBRANCH   7  10
ENDBRANCH   5   6
ENDBRANCH   1   5
BRANCH   3  14
ATOM     14  C   UNL     1      49.715  56.480  20.901  1.00  0.00    +0.110 C 
ATOM     15  C   UNL     1      50.986  56.935  21.631  1.00  0.00    +0.027 C 
ATOM     16  C   UNL     1      49.924  55.114  20.206  1.00  0.00    +0.136 C 
ATOM     17  C   UNL     1      51.479  55.876  22.612  1.00  0.00    +0.002 C 
ATOM     18  C   UNL     1      50.434  54.063  21.194  1.00  0.00    +0.034 C 
ATOM     19  C   UNL     1      51.690  54.527  21.931  1.00  0.00    +0.003 C 
BRANCH  16  20
ATOM     20  O   UNL     1      50.874  55.266  19.141  1.00  0.00    -0.391 OA
ATOM     21  H   UNL     1      51.591  55.833  19.478  1.00  0.00    +0.211 HD
ENDBRANCH  16  20
ENDBRANCH   3  14
TORSDOF 5
ENDMDL
