MODEL 1
REMARK VINA RESULT:    -7.632      0.000      0.000
REMARK INTER + INTRA:         -11.373
REMARK INTER:                 -10.532
REMARK INTRA:                  -0.841
REMARK UNBOUND:                -0.841
REMARK SMILES CCCNc1ccc(S(=O)(=O)N[C@H]2CCCC[C@H]2O)cc1
REMARK SMILES IDX 5 1 6 2 7 3 8 4 20 5 21 6 4 7 3 9 2 10 1 11 9 12 10 13 11 14
REMARK SMILES IDX 12 15 13 17 14 18 18 19 15 20 17 21 16 22 19 23
REMARK H PARENT 4 8 12 16 19 24
ROOT
ATOM      1  C   UNL     1      51.713  55.100  21.457  1.00  0.00    +0.034 A 
ATOM      2  C   UNL     1      52.077  55.082  20.101  1.00  0.00    +0.027 A 
ATOM      3  C   UNL     1      52.241  53.882  19.401  1.00  0.00    +0.024 A 
ATOM      4  C   UNL     1      52.057  52.673  20.068  1.00  0.00    +0.082 A 
ATOM      5  C   UNL     1      51.740  52.657  21.425  1.00  0.00    +0.024 A 
ATOM      6  C   UNL     1      51.581  53.868  22.111  1.00  0.00    +0.027 A 
ENDROOT
BRANCH   1   7
ATOM      7  N   UNL     1      51.634  56.333  22.101  1.00  0.00    -0.385 N 
ATOM      8  H   UNL     1      52.469  56.551  22.639  1.00  0.00    +0.160 HD
BRANCH   7   9
ATOM      9  C   UNL     1      51.040  57.504  21.466  1.00  0.00    +0.112 C 
BRANCH   9  10
ATOM     10  C   UNL     1      49.563  57.620  21.839  1.00  0.00    +0.018 C 
ATOM     11  C   UNL     1      48.666  57.109  20.723  1.00  0.00    +0.006 C 
ENDBRANCH   9  10
ENDBRANCH   7   9
ENDBRANCH   1   7
BRANCH   4  12
ATOM     12  S   UNL     1      52.270  51.154  19.186  1.00  0.00    +0.240 S 
ATOM     13  O   UNL     1      52.772  51.471  17.869  1.00  0.00    -0.207 OA
ATOM     14  O   UNL     1      52.934  50.188  20.033  1.00  0.00    -0.207 OA
BRANCH  12  15
ATOM     15  N   UNL     1      50.690  50.635  18.981  1.00  0.00    -0.205 NA
ATOM     16  H   UNL     1      50.059  51.033  19.681  1.00  0.00    +0.141 HD
BRANCH  15  17
ATOM     17  C   UNL     1      50.133  50.509  17.613  1.00  0.00    +0.098 C 
ATOM     18  C   UNL     1      49.203  49.282  17.596  1.00  0.00    +0.023 C 
ATOM     19  C   UNL     1      49.412  51.816  17.184  1.00  0.00    +0.132 C 
ATOM     20  C   UNL     1      47.783  49.631  18.030  1.00  0.00    +0.002 C 
ATOM     21  C   UNL     1      48.156  51.536  16.363  1.00  0.00    +0.033 C 
ATOM     22  C   UNL     1      47.141  50.675  17.118  1.00  0.00    +0.003 C 
BRANCH  19  23
ATOM     23  O   UNL     1      49.031  52.594  18.328  1.00  0.00    -0.391 OA
ATOM     24  H   UNL     1      49.862  52.776  18.808  1.00  0.00    +0.211 HD
ENDBRANCH  19  23
ENDBRANCH  15  17
ENDBRANCH  12  15
ENDBRANCH   4  12
TORSDOF 7
ENDMDL
MODEL 2
REMARK VINA RESULT:    -7.593      1.407      2.108
REMARK INTER + INTRA:         -11.320
REMARK INTER:                 -10.539
REMARK INTRA:                  -0.781
REMARK UNBOUND:                -0.841
REMARK SMILES CCCNc1ccc(S(=O)(=O)N[C@H]2CCCC[C@H]2O)cc1
REMARK SMILES IDX 5 1 6 2 7 3 8 4 20 5 21 6 4 7 3 9 2 10 1 11 9 12 10 13 11 14
REMARK SMILES IDX 12 15 13 17 14 18 18 19 15 20 17 21 16 22 19 23
REMARK H PARENT 4 8 12 16 19 24
ROOT
ATOM      1  C   UNL     1      51.990  54.781  20.874  1.00  0.00    +0.034 A 
ATOM      2  C   UNL     1      51.597  53.892  21.888  1.00  0.00    +0.027 A 
ATOM      3  C   UNL     1      51.550  52.511  21.676  1.00  0.00    +0.024 A 
ATOM      4  C   UNL     1      51.883  52.002  20.422  1.00  0.00    +0.082 A 
ATOM      5  C   UNL     1      52.234  52.861  19.383  1.00  0.00    +0.024 A 
ATOM      6  C   UNL     1      52.274  54.242  19.613  1.00  0.00    +0.027 A 
ENDROOT
BRANCH   1   7
ATOM      7  N   UNL     1      51.947  56.147  21.144  1.00  0.00    -0.385 N 
ATOM      8  H   UNL     1      52.245  56.714  20.354  1.00  0.00    +0.160 HD
BRANCH   7   9
ATOM      9  C   UNL     1      50.865  56.754  21.909  1.00  0.00    +0.112 C 
BRANCH   9  10
ATOM     10  C   UNL     1      49.581  56.786  21.082  1.00  0.00    +0.018 C 
ATOM     11  C   UNL     1      48.697  57.960  21.473  1.00  0.00    +0.006 C 
ENDBRANCH   9  10
ENDBRANCH   7   9
ENDBRANCH   1   7
BRANCH   4  12
ATOM     12  S   UNL     1      51.819  50.255  20.150  1.00  0.00    +0.240 S 
ATOM     13  O   UNL     1      53.164  49.796  19.889  1.00  0.00    -0.207 OA
ATOM     14  O   UNL     1      50.994  49.634  21.163  1.00  0.00    -0.207 OA
BRANCH  12  15
ATOM     15  N   UNL     1      50.991  50.148  18.698  1.00  0.00    -0.205 NA
ATOM     16  H   UNL     1      51.227  49.298  18.180  1.00  0.00    +0.141 HD
BRANCH  15  17
ATOM     17  C   UNL     1      49.569  50.563  18.633  1.00  0.00    +0.098 C 
ATOM     18  C   UNL     1      49.411  51.508  17.428  1.00  0.00    +0.023 C 
ATOM     19  C   UNL     1      48.632  49.327  18.555  1.00  0.00    +0.132 C 
ATOM     20  C   UNL     1      49.139  50.749  16.134  1.00  0.00    +0.002 C 
ATOM     21  C   UNL     1      47.437  49.569  17.637  1.00  0.00    +0.033 C 
ATOM     22  C   UNL     1      47.857  49.922  16.208  1.00  0.00    +0.003 C 
BRANCH  19  23
ATOM     23  O   UNL     1      49.338  48.175  18.072  1.00  0.00    -0.391 OA
ATOM     24  H   UNL     1      50.179  48.156  18.570  1.00  0.00    +0.211 HD
ENDBRANCH  19  23
ENDBRANCH  15  17
ENDBRANCH  12  15
ENDBRANCH   4  12
TORSDOF 7
ENDMDL
MODEL 3
REMARK VINA RESULT:    -7.462      2.174      2.797
REMARK INTER + INTRA:         -11.139
REMARK INTER:                 -10.400
REMARK INTRA:                  -0.739
REMARK UNBOUND:                -0.841
REMARK SMILES CCCNc1ccc(S(=O)(=O)N[C@H]2CCCC[C@H]2O)cc1
REMARK SMILES IDX 5 1 6 2 7 3 8 4 20 5 21 6 4 7 3 9 2 10 1 11 9 12 10 13 11 14
REMARK SMILES IDX 12 15 13 17 14 18 18 19 15 20 17 21 16 22 19 23
REMARK H PARENT 4 8 12 16 19 24
ROOT
ATOM      1  C   UNL     1      49.551  54.563  19.745  1.00  0.00    +0.034 A 
ATOM      2  C   UNL     1      50.231  53.865  20.757  1.00  0.00    +0.027 A 
ATOM      3  C   UNL     1      50.627  52.534  20.590  1.00  0.00    +0.024 A 
ATOM      4  C   UNL     1      50.325  51.876  19.400  1.00  0.00    +0.082 A 
ATOM      5  C   UNL     1      49.612  52.528  18.395  1.00  0.00    +0.024 A 
ATOM      6  C   UNL     1      49.222  53.861  18.579  1.00  0.00    +0.027 A 
ENDROOT
BRANCH   1   7
ATOM      7  N   UNL     1      49.132  55.865  20.012  1.00  0.00    -0.385 N 
ATOM      8  H   UNL     1      48.140  56.003  19.836  1.00  0.00    +0.160 HD
BRANCH   7   9
ATOM      9  C   UNL     1      49.622  56.618  21.160  1.00  0.00    +0.112 C 
BRANCH   9  10
ATOM     10  C   UNL     1      48.783  57.878  21.367  1.00  0.00    +0.018 C 
ATOM     11  C   UNL     1      47.484  57.817  20.581  1.00  0.00    +0.006 C 
ENDBRANCH   9  10
ENDBRANCH   7   9
ENDBRANCH   1   7
BRANCH   4  12
ATOM     12  S   UNL     1      50.820  50.191  19.190  1.00  0.00    +0.240 S 
ATOM     13  O   UNL     1      52.211  50.181  18.798  1.00  0.00    -0.207 OA
ATOM     14  O   UNL     1      50.346  49.402  20.306  1.00  0.00    -0.207 OA
BRANCH  12  15
ATOM     15  N   UNL     1      49.942  49.724  17.841  1.00  0.00    -0.205 NA
ATOM     16  H   UNL     1      50.529  49.646  17.006  1.00  0.00    +0.141 HD
BRANCH  15  17
ATOM     17  C   UNL     1      48.882  48.697  17.977  1.00  0.00    +0.098 C 
ATOM     18  C   UNL     1      47.543  49.429  18.180  1.00  0.00    +0.023 C 
ATOM     19  C   UNL     1      48.868  47.747  16.748  1.00  0.00    +0.132 C 
ATOM     20  C   UNL     1      46.878  49.791  16.857  1.00  0.00    +0.002 C 
ATOM     21  C   UNL     1      47.450  47.349  16.347  1.00  0.00    +0.033 C 
ATOM     22  C   UNL     1      46.574  48.557  16.008  1.00  0.00    +0.003 C 
BRANCH  19  23
ATOM     23  O   UNL     1      49.494  48.364  15.613  1.00  0.00    -0.391 OA
ATOM     24  H   UNL     1      48.772  48.533  14.977  1.00  0.00    +0.211 HD
ENDBRANCH  19  23
ENDBRANCH  15  17
ENDBRANCH  12  15
ENDBRANCH   4  12
TORSDOF 7
ENDMDL
MODEL 4
REMARK VINA RESULT:    -7.322      2.312      6.841
REMARK INTER + INTRA:         -10.945
REMARK INTER:                 -10.217
REMARK INTRA:                  -0.728
REMARK UNBOUND:                -0.841
REMARK SMILES CCCNc1ccc(S(=O)(=O)N[C@H]2CCCC[C@H]2O)cc1
REMARK SMILES IDX 5 1 6 2 7 3 8 4 20 5 21 6 4 7 3 9 2 10 1 11 9 12 10 13 11 14
REMARK SMILES IDX 12 15 13 17 14 18 18 19 15 20 17 21 16 22 19 23
REMARK H PARENT 4 8 12 16 19 24
ROOT
ATOM      1  C   UNL     1      49.484  49.405  18.397  1.00  0.00    +0.034 A 
ATOM      2  C   UNL     1      50.158  49.229  19.617  1.00  0.00    +0.027 A 
ATOM      3  C   UNL     1      50.828  50.284  20.243  1.00  0.00    +0.024 A 
ATOM      4  C   UNL     1      50.845  51.538  19.637  1.00  0.00    +0.082 A 
ATOM      5  C   UNL     1      50.224  51.734  18.405  1.00  0.00    +0.024 A 
ATOM      6  C   UNL     1      49.559  50.665  17.790  1.00  0.00    +0.027 A 
ENDROOT
BRANCH   1   7
ATOM      7  N   UNL     1      48.897  48.290  17.803  1.00  0.00    -0.385 N 
ATOM      8  H   UNL     1      49.268  47.413  18.159  1.00  0.00    +0.160 HD
BRANCH   7   9
ATOM      9  C   UNL     1      47.471  48.230  17.504  1.00  0.00    +0.112 C 
BRANCH   9  10
ATOM     10  C   UNL     1      46.655  48.246  18.796  1.00  0.00    +0.018 C 
ATOM     11  C   UNL     1      45.333  47.515  18.628  1.00  0.00    +0.006 C 
ENDBRANCH   9  10
ENDBRANCH   7   9
ENDBRANCH   1   7
BRANCH   4  12
ATOM     12  S   UNL     1      51.697  52.872  20.426  1.00  0.00    +0.240 S 
ATOM     13  O   UNL     1      51.959  52.486  21.793  1.00  0.00    -0.207 OA
ATOM     14  O   UNL     1      52.754  53.354  19.563  1.00  0.00    -0.207 OA
BRANCH  12  15
ATOM     15  N   UNL     1      50.521  54.064  20.486  1.00  0.00    -0.205 NA
ATOM     16  H   UNL     1      49.886  53.940  21.279  1.00  0.00    +0.141 HD
BRANCH  15  17
ATOM     17  C   UNL     1      50.881  55.466  20.166  1.00  0.00    +0.098 C 
ATOM     18  C   UNL     1      49.589  56.205  19.775  1.00  0.00    +0.023 C 
ATOM     19  C   UNL     1      51.619  56.135  21.358  1.00  0.00    +0.132 C 
ATOM     20  C   UNL     1      48.864  56.778  20.987  1.00  0.00    +0.002 C 
ATOM     21  C   UNL     1      51.226  57.600  21.527  1.00  0.00    +0.033 C 
ATOM     22  C   UNL     1      49.724  57.783  21.753  1.00  0.00    +0.003 C 
BRANCH  19  23
ATOM     23  O   UNL     1      51.335  55.454  22.588  1.00  0.00    -0.391 OA
ATOM     24  H   UNL     1      50.361  55.464  22.673  1.00  0.00    +0.211 HD
ENDBRANCH  19  23
ENDBRANCH  15  17
ENDBRANCH  12  15
ENDBRANCH   4  12
TORSDOF 7
ENDMDL
MODEL 5
REMARK VINA RESULT:    -7.226      3.221      4.719
REMARK INTER + INTRA:         -10.813
REMARK INTER:                 -10.138
REMARK INTRA:                  -0.675
REMARK UNBOUND:                -0.841
REMARK SMILES CCCNc1ccc(S(=O)(=O)N[C@H]2CCCC[C@H]2O)cc1
REMARK SMILES IDX 5 1 6 2 7 3 8 4 20 5 21 6 4 7 3 9 2 10 1 11 9 12 10 13 11 14
REMARK SMILES IDX 12 15 13 17 14 18 18 19 15 20 17 21 16 22 19 23
REMARK H PARENT 4 8 12 16 19 24
ROOT
ATOM      1  C   UNL     1      48.315  58.085  20.345  1.00  0.00    +0.034 A 
ATOM      2  C   UNL     1      48.920  58.113  21.613  1.00  0.00    +0.027 A 
ATOM      3  C   UNL     1      50.068  57.366  21.894  1.00  0.00    +0.024 A 
ATOM      4  C   UNL     1      50.617  56.558  20.901  1.00  0.00    +0.082 A 
ATOM      5  C   UNL     1      50.014  56.474  19.648  1.00  0.00    +0.024 A 
ATOM      6  C   UNL     1      48.863  57.228  19.383  1.00  0.00    +0.027 A 
ENDROOT
BRANCH   1   7
ATOM      7  N   UNL     1      47.136  58.805  20.163  1.00  0.00    -0.385 N 
ATOM      8  H   UNL     1      46.760  59.172  21.034  1.00  0.00    +0.160 HD
BRANCH   7   9
ATOM      9  C   UNL     1      46.942  59.702  19.030  1.00  0.00    +0.112 C 
BRANCH   9  10
ATOM     10  C   UNL     1      47.069  61.158  19.477  1.00  0.00    +0.018 C 
ATOM     11  C   UNL     1      45.735  61.883  19.395  1.00  0.00    +0.006 C 
ENDBRANCH   9  10
ENDBRANCH   7   9
ENDBRANCH   1   7
BRANCH   4  12
ATOM     12  S   UNL     1      52.066  55.608  21.258  1.00  0.00    +0.240 S 
ATOM     13  O   UNL     1      53.210  56.485  21.152  1.00  0.00    -0.207 OA
ATOM     14  O   UNL     1      51.841  54.801  22.437  1.00  0.00    -0.207 OA
BRANCH  12  15
ATOM     15  N   UNL     1      52.143  54.566  19.948  1.00  0.00    -0.205 NA
ATOM     16  H   UNL     1      52.887  54.823  19.293  1.00  0.00    +0.141 HD
BRANCH  15  17
ATOM     17  C   UNL     1      51.947  53.112  20.156  1.00  0.00    +0.098 C 
ATOM     18  C   UNL     1      50.432  52.837  20.150  1.00  0.00    +0.023 C 
ATOM     19  C   UNL     1      52.712  52.288  19.084  1.00  0.00    +0.132 C 
ATOM     20  C   UNL     1      49.896  52.602  18.742  1.00  0.00    +0.002 C 
ATOM     21  C   UNL     1      51.931  51.053  18.644  1.00  0.00    +0.033 C 
ATOM     22  C   UNL     1      50.558  51.402  18.066  1.00  0.00    +0.003 C 
BRANCH  19  23
ATOM     23  O   UNL     1      52.981  53.083  17.919  1.00  0.00    -0.391 OA
ATOM     24  H   UNL     1      53.815  52.732  17.550  1.00  0.00    +0.211 HD
ENDBRANCH  19  23
ENDBRANCH  15  17
ENDBRANCH  12  15
ENDBRANCH   4  12
TORSDOF 7
ENDMDL
