MODEL 1
REMARK VINA RESULT:    -8.358      0.000      0.000
REMARK INTER + INTRA:         -11.407
REMARK INTER:                 -10.557
REMARK INTRA:                  -0.851
REMARK UNBOUND:                -0.851
REMARK SMILES Cc1cc(C)c(/C(N)=N/O)c(OCC2CCCCC2)n1
REMARK SMILES IDX 5 1 4 2 3 3 2 4 20 5 11 6 6 7 1 8 7 9 9 10 8 11 10 14 12 16
REMARK SMILES IDX 13 17 14 18 15 19 19 20 16 21 18 22 17 23
REMARK H PARENT 8 12 8 13 10 15
ROOT
ATOM      1  C   UNL     1      51.602  52.733  22.114  1.00  0.00    +0.045 C 
ATOM      2  C   UNL     1      50.893  52.766  20.792  1.00  0.00    -0.033 A 
ATOM      3  C   UNL     1      50.155  53.897  20.422  1.00  0.00    +0.028 A 
ATOM      4  C   UNL     1      49.503  53.922  19.188  1.00  0.00    +0.042 A 
ATOM      5  N   UNL     1      49.550  52.889  18.314  1.00  0.00    -0.218 NA
ATOM      6  C   UNL     1      50.270  51.795  18.675  1.00  0.00    +0.225 A 
ATOM      7  C   UNL     1      50.956  51.698  19.883  1.00  0.00    +0.085 A 
ATOM      8  C   UNL     1      48.690  55.119  18.786  1.00  0.00    +0.067 C 
ENDROOT
BRANCH   7   9
ATOM      9  C   UNL     1      51.723  50.476  20.200  1.00  0.00    +0.175 C 
ATOM     10  N   UNL     1      52.993  50.467  19.934  1.00  0.00    -0.070 NA
ATOM     11  N   UNL     1      51.055  49.403  20.730  1.00  0.00    -0.380 N 
ATOM     12  H   UNL     1      50.097  49.259  20.435  1.00  0.00    +0.158 HD
ATOM     13  H   UNL     1      51.632  48.566  20.710  1.00  0.00    +0.158 HD
BRANCH  10  14
ATOM     14  O   UNL     1      53.562  49.223  20.260  1.00  0.00    -0.409 OA
ATOM     15  H   UNL     1      52.931  48.607  19.849  1.00  0.00    +0.330 HD
ENDBRANCH  10  14
ENDBRANCH   7   9
BRANCH   6  16
ATOM     16  O   UNL     1      50.368  50.745  17.783  1.00  0.00    -0.477 OA
BRANCH  16  17
ATOM     17  C   UNL     1      49.126  50.371  17.186  1.00  0.00    +0.235 C 
BRANCH  17  18
ATOM     18  C   UNL     1      48.822  48.907  17.567  1.00  0.00    +0.027 C 
ATOM     19  C   UNL     1      48.297  48.095  16.371  1.00  0.00    +0.007 C 
ATOM     20  C   UNL     1      47.854  48.830  18.763  1.00  0.00    +0.007 C 
ATOM     21  C   UNL     1      46.904  48.535  15.912  1.00  0.00    +0.000 C 
ATOM     22  C   UNL     1      46.431  48.399  18.398  1.00  0.00    +0.000 C 
ATOM     23  C   UNL     1      45.990  48.970  17.057  1.00  0.00    +0.000 C 
ENDBRANCH  17  18
ENDBRANCH  16  17
ENDBRANCH   6  16
TORSDOF 5
ENDMDL
MODEL 2
REMARK VINA RESULT:    -8.310      2.101      5.607
REMARK INTER + INTRA:         -11.346
REMARK INTER:                 -10.568
REMARK INTRA:                  -0.779
REMARK UNBOUND:                -0.851
REMARK SMILES Cc1cc(C)c(/C(N)=N/O)c(OCC2CCCCC2)n1
REMARK SMILES IDX 5 1 4 2 3 3 2 4 20 5 11 6 6 7 1 8 7 9 9 10 8 11 10 14 12 16
REMARK SMILES IDX 13 17 14 18 15 19 19 20 16 21 18 22 17 23
REMARK H PARENT 8 12 8 13 10 15
ROOT
ATOM      1  C   UNL     1      49.572  48.951  19.120  1.00  0.00    +0.045 C 
ATOM      2  C   UNL     1      49.760  50.389  18.732  1.00  0.00    -0.033 A 
ATOM      3  C   UNL     1      48.789  51.039  17.960  1.00  0.00    +0.028 A 
ATOM      4  C   UNL     1      48.968  52.377  17.608  1.00  0.00    +0.042 A 
ATOM      5  N   UNL     1      50.054  53.093  17.982  1.00  0.00    -0.218 NA
ATOM      6  C   UNL     1      50.993  52.461  18.734  1.00  0.00    +0.225 A 
ATOM      7  C   UNL     1      50.881  51.131  19.134  1.00  0.00    +0.085 A 
ATOM      8  C   UNL     1      47.945  53.081  16.763  1.00  0.00    +0.067 C 
ENDROOT
BRANCH   7   9
ATOM      9  C   UNL     1      51.943  50.517  19.957  1.00  0.00    +0.175 C 
ATOM     10  N   UNL     1      52.850  49.811  19.355  1.00  0.00    -0.070 NA
ATOM     11  N   UNL     1      51.903  50.695  21.315  1.00  0.00    -0.380 N 
ATOM     12  H   UNL     1      50.990  50.762  21.750  1.00  0.00    +0.158 HD
ATOM     13  H   UNL     1      52.547  50.066  21.786  1.00  0.00    +0.158 HD
BRANCH  10  14
ATOM     14  O   UNL     1      53.758  49.270  20.283  1.00  0.00    -0.409 OA
ATOM     15  H   UNL     1      53.160  48.975  20.992  1.00  0.00    +0.330 HD
ENDBRANCH  10  14
ENDBRANCH   7   9
BRANCH   6  16
ATOM     16  O   UNL     1      52.090  53.182  19.164  1.00  0.00    -0.477 OA
BRANCH  16  17
ATOM     17  C   UNL     1      51.785  54.513  19.580  1.00  0.00    +0.235 C 
BRANCH  17  18
ATOM     18  C   UNL     1      50.852  54.440  20.807  1.00  0.00    +0.027 C 
ATOM     19  C   UNL     1      49.882  55.632  20.868  1.00  0.00    +0.007 C 
ATOM     20  C   UNL     1      51.657  54.307  22.114  1.00  0.00    +0.007 C 
ATOM     21  C   UNL     1      50.583  56.962  21.157  1.00  0.00    +0.000 C 
ATOM     22  C   UNL     1      51.690  55.578  22.968  1.00  0.00    +0.000 C 
ATOM     23  C   UNL     1      51.768  56.835  22.113  1.00  0.00    +0.000 C 
ENDBRANCH  17  18
ENDBRANCH  16  17
ENDBRANCH   6  16
TORSDOF 5
ENDMDL
MODEL 3
REMARK VINA RESULT:    -7.473      1.925      2.681
REMARK INTER + INTRA:         -10.289
REMARK INTER:                  -9.457
REMARK INTRA:                  -0.832
REMARK UNBOUND:                -0.851
REMARK SMILES Cc1cc(C)c(/C(N)=N/O)c(OCC2CCCCC2)n1
REMARK SMILES IDX 5 1 4 2 3 3 2 4 20 5 11 6 6 7 1 8 7 9 9 10 8 11 10 14 12 16
REMARK SMILES IDX 13 17 14 18 15 19 19 20 16 21 18 22 17 23
REMARK H PARENT 8 12 8 13 10 15
ROOT
ATOM      1  C   UNL     1      51.958  55.468  22.193  1.00  0.00    +0.045 C 
ATOM      2  C   UNL     1      50.802  55.240  21.264  1.00  0.00    -0.033 A 
ATOM      3  C   UNL     1      49.874  56.264  21.036  1.00  0.00    +0.028 A 
ATOM      4  C   UNL     1      48.804  56.046  20.167  1.00  0.00    +0.042 A 
ATOM      5  N   UNL     1      48.615  54.872  19.520  1.00  0.00    -0.218 NA
ATOM      6  C   UNL     1      49.519  53.881  19.739  1.00  0.00    +0.225 A 
ATOM      7  C   UNL     1      50.617  54.026  20.584  1.00  0.00    +0.085 A 
ATOM      8  C   UNL     1      47.790  57.127  19.929  1.00  0.00    +0.067 C 
ENDROOT
BRANCH   7   9
ATOM      9  C   UNL     1      51.559  52.903  20.767  1.00  0.00    +0.175 C 
ATOM     10  N   UNL     1      51.419  52.153  21.816  1.00  0.00    -0.070 NA
ATOM     11  N   UNL     1      52.552  52.725  19.839  1.00  0.00    -0.380 N 
ATOM     12  H   UNL     1      52.933  53.554  19.399  1.00  0.00    +0.158 HD
ATOM     13  H   UNL     1      53.252  52.067  20.173  1.00  0.00    +0.158 HD
BRANCH  10  14
ATOM     14  O   UNL     1      52.415  51.161  21.856  1.00  0.00    -0.409 OA
ATOM     15  H   UNL     1      51.880  50.348  21.866  1.00  0.00    +0.330 HD
ENDBRANCH  10  14
ENDBRANCH   7   9
BRANCH   6  16
ATOM     16  O   UNL     1      49.371  52.689  19.059  1.00  0.00    -0.477 OA
BRANCH  16  17
ATOM     17  C   UNL     1      48.688  52.812  17.811  1.00  0.00    +0.235 C 
BRANCH  17  18
ATOM     18  C   UNL     1      49.123  51.645  16.899  1.00  0.00    +0.027 C 
ATOM     19  C   UNL     1      47.926  50.981  16.198  1.00  0.00    +0.007 C 
ATOM     20  C   UNL     1      49.960  50.611  17.675  1.00  0.00    +0.007 C 
ATOM     21  C   UNL     1      47.009  50.224  17.163  1.00  0.00    +0.000 C 
ATOM     22  C   UNL     1      49.224  49.305  17.982  1.00  0.00    +0.000 C 
ATOM     23  C   UNL     1      47.757  49.541  18.308  1.00  0.00    +0.000 C 
ENDBRANCH  17  18
ENDBRANCH  16  17
ENDBRANCH   6  16
TORSDOF 5
ENDMDL
MODEL 4
REMARK VINA RESULT:    -7.289      3.385      5.019
REMARK INTER + INTRA:         -10.057
REMARK INTER:                  -9.516
REMARK INTRA:                  -0.541
REMARK UNBOUND:                -0.851
REMARK SMILES Cc1cc(C)c(/C(N)=N/O)c(OCC2CCCCC2)n1
REMARK SMILES IDX 5 1 4 2 3 3 2 4 20 5 11 6 6 7 1 8 7 9 9 10 8 11 10 14 12 16
REMARK SMILES IDX 13 17 14 18 15 19 19 20 16 21 18 22 17 23
REMARK H PARENT 8 12 8 13 10 15
ROOT
ATOM      1  C   UNL     1      49.581  57.924  21.696  1.00  0.00    +0.045 C 
ATOM      2  C   UNL     1      49.705  56.569  21.064  1.00  0.00    -0.033 A 
ATOM      3  C   UNL     1      48.739  56.132  20.149  1.00  0.00    +0.028 A 
ATOM      4  C   UNL     1      48.863  54.873  19.560  1.00  0.00    +0.042 A 
ATOM      5  N   UNL     1      49.891  54.036  19.836  1.00  0.00    -0.218 NA
ATOM      6  C   UNL     1      50.829  54.463  20.721  1.00  0.00    +0.225 A 
ATOM      7  C   UNL     1      50.779  55.709  21.341  1.00  0.00    +0.085 A 
ATOM      8  C   UNL     1      47.824  54.383  18.594  1.00  0.00    +0.067 C 
ENDROOT
BRANCH   7   9
ATOM      9  C   UNL     1      51.842  56.104  22.289  1.00  0.00    +0.175 C 
ATOM     10  N   UNL     1      52.819  56.831  21.841  1.00  0.00    -0.070 NA
ATOM     11  N   UNL     1      51.761  55.662  23.583  1.00  0.00    -0.380 N 
ATOM     12  H   UNL     1      51.347  54.751  23.739  1.00  0.00    +0.158 HD
ATOM     13  H   UNL     1      52.636  55.816  24.078  1.00  0.00    +0.158 HD
BRANCH  10  14
ATOM     14  O   UNL     1      53.758  57.085  22.857  1.00  0.00    -0.409 OA
ATOM     15  H   UNL     1      54.475  57.511  22.357  1.00  0.00    +0.330 HD
ENDBRANCH  10  14
ENDBRANCH   7   9
BRANCH   6  16
ATOM     16  O   UNL     1      51.909  53.644  20.986  1.00  0.00    -0.477 OA
BRANCH  16  17
ATOM     17  C   UNL     1      51.556  52.373  21.530  1.00  0.00    +0.235 C 
BRANCH  17  18
ATOM     18  C   UNL     1      52.331  51.281  20.763  1.00  0.00    +0.027 C 
ATOM     19  C   UNL     1      52.422  51.585  19.258  1.00  0.00    +0.007 C 
ATOM     20  C   UNL     1      51.729  49.885  21.015  1.00  0.00    +0.007 C 
ATOM     21  C   UNL     1      51.070  51.490  18.544  1.00  0.00    +0.000 C 
ATOM     22  C   UNL     1      50.943  49.313  19.833  1.00  0.00    +0.000 C 
ATOM     23  C   UNL     1      50.163  50.390  19.093  1.00  0.00    +0.000 C 
ENDBRANCH  17  18
ENDBRANCH  16  17
ENDBRANCH   6  16
TORSDOF 5
ENDMDL
MODEL 5
REMARK VINA RESULT:    -7.144      1.694      2.194
REMARK INTER + INTRA:          -9.874
REMARK INTER:                  -9.114
REMARK INTRA:                  -0.759
REMARK UNBOUND:                -0.851
REMARK SMILES Cc1cc(C)c(/C(N)=N/O)c(OCC2CCCCC2)n1
REMARK SMILES IDX 5 1 4 2 3 3 2 4 20 5 11 6 6 7 1 8 7 9 9 10 8 11 10 14 12 16
REMARK SMILES IDX 13 17 14 18 15 19 19 20 16 21 18 22 17 23
REMARK H PARENT 8 12 8 13 10 15
ROOT
ATOM      1  C   UNL     1      50.476  55.449  19.919  1.00  0.00    +0.045 C 
ATOM      2  C   UNL     1      49.854  54.372  19.079  1.00  0.00    -0.033 A 
ATOM      3  C   UNL     1      48.983  54.712  18.037  1.00  0.00    +0.028 A 
ATOM      4  C   UNL     1      48.413  53.705  17.257  1.00  0.00    +0.042 A 
ATOM      5  N   UNL     1      48.665  52.391  17.461  1.00  0.00    -0.218 NA
ATOM      6  C   UNL     1      49.514  52.064  18.471  1.00  0.00    +0.225 A 
ATOM      7  C   UNL     1      50.129  53.011  19.285  1.00  0.00    +0.085 A 
ATOM      8  C   UNL     1      47.461  54.054  16.149  1.00  0.00    +0.067 C 
ENDROOT
BRANCH   7   9
ATOM      9  C   UNL     1      51.045  52.576  20.359  1.00  0.00    +0.175 C 
ATOM     10  N   UNL     1      50.609  52.602  21.581  1.00  0.00    -0.070 NA
ATOM     11  N   UNL     1      52.318  52.197  20.020  1.00  0.00    -0.380 N 
ATOM     12  H   UNL     1      52.750  52.668  19.234  1.00  0.00    +0.158 HD
ATOM     13  H   UNL     1      52.909  52.123  20.843  1.00  0.00    +0.158 HD
BRANCH  10  14
ATOM     14  O   UNL     1      51.613  52.195  22.478  1.00  0.00    -0.409 OA
ATOM     15  H   UNL     1      51.992  51.430  22.012  1.00  0.00    +0.330 HD
ENDBRANCH  10  14
ENDBRANCH   7   9
BRANCH   6  16
ATOM     16  O   UNL     1      49.819  50.732  18.672  1.00  0.00    -0.477 OA
BRANCH  16  17
ATOM     17  C   UNL     1      49.707  49.926  17.499  1.00  0.00    +0.235 C 
BRANCH  17  18
ATOM     18  C   UNL     1      48.946  48.634  17.866  1.00  0.00    +0.027 C 
ATOM     19  C   UNL     1      48.557  47.819  16.621  1.00  0.00    +0.007 C 
ATOM     20  C   UNL     1      47.715  48.940  18.740  1.00  0.00    +0.007 C 
ATOM     21  C   UNL     1      47.495  48.507  15.759  1.00  0.00    +0.000 C 
ATOM     22  C   UNL     1      46.374  48.808  18.012  1.00  0.00    +0.000 C 
ATOM     23  C   UNL     1      46.460  49.287  16.570  1.00  0.00    +0.000 C 
ENDBRANCH  17  18
ENDBRANCH  16  17
ENDBRANCH   6  16
TORSDOF 5
ENDMDL
