MODEL 1
REMARK VINA RESULT:    -7.403      0.000      0.000
REMARK INTER + INTRA:         -10.734
REMARK INTER:                 -10.000
REMARK INTRA:                  -0.734
REMARK UNBOUND:                -0.734
REMARK SMILES CC(C)[NH2+]Cc1ccc(OCC2CCCCC2)nn1
REMARK SMILES IDX 6 1 7 2 8 3 9 4 18 5 19 6 5 7 4 8 2 11 1 12 3 13 10 14 11 15
REMARK SMILES IDX 12 16 13 17 17 18 14 19 16 20 15 21
REMARK H PARENT 4 9 4 10
ROOT
ATOM      1  C   UNL     1      51.551  51.341  20.040  1.00  0.00    +0.117 A 
ATOM      2  C   UNL     1      51.249  51.417  21.391  1.00  0.00    +0.037 A 
ATOM      3  C   UNL     1      51.411  52.639  22.034  1.00  0.00    +0.072 A 
ATOM      4  C   UNL     1      51.869  53.716  21.300  1.00  0.00    +0.233 A 
ATOM      5  N   UNL     1      52.159  53.612  19.984  1.00  0.00    -0.112 NA
ATOM      6  N   UNL     1      52.003  52.417  19.349  1.00  0.00    -0.146 NA
ENDROOT
BRANCH   1   7
ATOM      7  C   UNL     1      51.421  50.062  19.258  1.00  0.00    +0.320 C 
BRANCH   7   8
ATOM      8  N   UNL     1      50.910  50.306  17.862  1.00  0.00    -0.339 N 
ATOM      9  H   UNL     1      51.491  49.712  17.248  1.00  0.00    +0.346 HD
ATOM     10  H   UNL     1      51.177  51.261  17.583  1.00  0.00    +0.346 HD
BRANCH   8  11
ATOM     11  C   UNL     1      49.462  50.048  17.608  1.00  0.00    +0.176 C 
ATOM     12  C   UNL     1      48.885  49.192  18.727  1.00  0.00    +0.075 C 
ATOM     13  C   UNL     1      48.754  51.395  17.523  1.00  0.00    +0.075 C 
ENDBRANCH   8  11
ENDBRANCH   7   8
ENDBRANCH   1   7
BRANCH   4  14
ATOM     14  O   UNL     1      52.018  54.909  21.970  1.00  0.00    -0.476 OA
BRANCH  14  15
ATOM     15  C   UNL     1      51.726  56.059  21.171  1.00  0.00    +0.235 C 
BRANCH  15  16
ATOM     16  C   UNL     1      50.238  56.409  21.331  1.00  0.00    +0.027 C 
ATOM     17  C   UNL     1      50.075  57.875  21.753  1.00  0.00    +0.007 C 
ATOM     18  C   UNL     1      49.453  56.123  20.038  1.00  0.00    +0.007 C 
ATOM     19  C   UNL     1      48.605  58.270  21.878  1.00  0.00    +0.000 C 
ATOM     20  C   UNL     1      47.986  56.525  20.166  1.00  0.00    +0.000 C 
ATOM     21  C   UNL     1      47.835  57.982  20.594  1.00  0.00    +0.000 C 
ENDBRANCH  15  16
ENDBRANCH  14  15
ENDBRANCH   4  14
TORSDOF 6
ENDMDL
MODEL 2
REMARK VINA RESULT:    -7.056      2.349      3.772
REMARK INTER + INTRA:         -10.265
REMARK INTER:                  -9.800
REMARK INTRA:                  -0.465
REMARK UNBOUND:                -0.734
REMARK SMILES CC(C)[NH2+]Cc1ccc(OCC2CCCCC2)nn1
REMARK SMILES IDX 6 1 7 2 8 3 9 4 18 5 19 6 5 7 4 8 2 11 1 12 3 13 10 14 11 15
REMARK SMILES IDX 12 16 13 17 17 18 14 19 16 20 15 21
REMARK H PARENT 4 9 4 10
ROOT
ATOM      1  C   UNL     1      48.340  50.487  17.362  1.00  0.00    +0.117 A 
ATOM      2  C   UNL     1      47.616  51.579  16.909  1.00  0.00    +0.037 A 
ATOM      3  C   UNL     1      48.051  52.851  17.263  1.00  0.00    +0.072 A 
ATOM      4  C   UNL     1      49.180  52.966  18.051  1.00  0.00    +0.233 A 
ATOM      5  N   UNL     1      49.865  51.883  18.482  1.00  0.00    -0.112 NA
ATOM      6  N   UNL     1      49.441  50.635  18.139  1.00  0.00    -0.146 NA
ENDROOT
BRANCH   1   7
ATOM      7  C   UNL     1      47.942  49.070  17.045  1.00  0.00    +0.320 C 
BRANCH   7   8
ATOM      8  N   UNL     1      47.241  48.411  18.203  1.00  0.00    -0.339 N 
ATOM      9  H   UNL     1      47.168  49.140  18.932  1.00  0.00    +0.346 HD
ATOM     10  H   UNL     1      47.884  47.725  18.621  1.00  0.00    +0.346 HD
BRANCH   8  11
ATOM     11  C   UNL     1      45.898  47.813  17.939  1.00  0.00    +0.176 C 
ATOM     12  C   UNL     1      45.272  47.351  19.247  1.00  0.00    +0.075 C 
ATOM     13  C   UNL     1      45.038  48.872  17.261  1.00  0.00    +0.075 C 
ENDBRANCH   8  11
ENDBRANCH   7   8
ENDBRANCH   1   7
BRANCH   4  14
ATOM     14  O   UNL     1      49.582  54.241  18.383  1.00  0.00    -0.476 OA
BRANCH  14  15
ATOM     15  C   UNL     1      49.709  54.457  19.791  1.00  0.00    +0.235 C 
BRANCH  15  16
ATOM     16  C   UNL     1      49.558  55.959  20.078  1.00  0.00    +0.027 C 
ATOM     17  C   UNL     1      48.075  56.354  20.096  1.00  0.00    +0.007 C 
ATOM     18  C   UNL     1      50.243  56.349  21.399  1.00  0.00    +0.007 C 
ATOM     19  C   UNL     1      47.885  57.833  20.423  1.00  0.00    +0.000 C 
ATOM     20  C   UNL     1      50.045  57.828  21.725  1.00  0.00    +0.000 C 
ATOM     21  C   UNL     1      48.569  58.212  21.733  1.00  0.00    +0.000 C 
ENDBRANCH  15  16
ENDBRANCH  14  15
ENDBRANCH   4  14
TORSDOF 6
ENDMDL
MODEL 3
REMARK VINA RESULT:    -6.849      1.895      6.368
REMARK INTER + INTRA:          -9.986
REMARK INTER:                  -9.284
REMARK INTRA:                  -0.701
REMARK UNBOUND:                -0.734
REMARK SMILES CC(C)[NH2+]Cc1ccc(OCC2CCCCC2)nn1
REMARK SMILES IDX 6 1 7 2 8 3 9 4 18 5 19 6 5 7 4 8 2 11 1 12 3 13 10 14 11 15
REMARK SMILES IDX 12 16 13 17 17 18 14 19 16 20 15 21
REMARK H PARENT 4 9 4 10
ROOT
ATOM      1  C   UNL     1      51.621  54.389  21.364  1.00  0.00    +0.117 A 
ATOM      2  C   UNL     1      51.941  54.165  20.034  1.00  0.00    +0.037 A 
ATOM      3  C   UNL     1      51.889  52.861  19.555  1.00  0.00    +0.072 A 
ATOM      4  C   UNL     1      51.525  51.852  20.426  1.00  0.00    +0.233 A 
ATOM      5  N   UNL     1      51.222  52.099  21.720  1.00  0.00    -0.112 NA
ATOM      6  N   UNL     1      51.273  53.375  22.194  1.00  0.00    -0.146 NA
ENDROOT
BRANCH   1   7
ATOM      7  C   UNL     1      51.660  55.762  21.979  1.00  0.00    +0.320 C 
BRANCH   7   8
ATOM      8  N   UNL     1      50.875  56.762  21.173  1.00  0.00    -0.339 N 
ATOM      9  H   UNL     1      51.088  56.547  20.185  1.00  0.00    +0.346 HD
ATOM     10  H   UNL     1      51.300  57.690  21.307  1.00  0.00    +0.346 HD
BRANCH   8  11
ATOM     11  C   UNL     1      49.397  56.802  21.384  1.00  0.00    +0.176 C 
ATOM     12  C   UNL     1      48.976  58.194  21.832  1.00  0.00    +0.075 C 
ATOM     13  C   UNL     1      48.726  56.419  20.070  1.00  0.00    +0.075 C 
ENDBRANCH   8  11
ENDBRANCH   7   8
ENDBRANCH   1   7
BRANCH   4  14
ATOM     14  O   UNL     1      51.485  50.573  19.917  1.00  0.00    -0.476 OA
BRANCH  14  15
ATOM     15  C   UNL     1      51.014  50.503  18.569  1.00  0.00    +0.235 C 
BRANCH  15  16
ATOM     16  C   UNL     1      49.479  50.408  18.584  1.00  0.00    +0.027 C 
ATOM     17  C   UNL     1      48.891  51.041  17.315  1.00  0.00    +0.007 C 
ATOM     18  C   UNL     1      49.010  48.951  18.735  1.00  0.00    +0.007 C 
ATOM     19  C   UNL     1      47.370  50.924  17.276  1.00  0.00    +0.000 C 
ATOM     20  C   UNL     1      47.488  48.838  18.689  1.00  0.00    +0.000 C 
ATOM     21  C   UNL     1      46.913  49.477  17.428  1.00  0.00    +0.000 C 
ENDBRANCH  15  16
ENDBRANCH  14  15
ENDBRANCH   4  14
TORSDOF 6
ENDMDL
MODEL 4
REMARK VINA RESULT:    -6.805      1.433      2.008
REMARK INTER + INTRA:          -9.925
REMARK INTER:                  -9.331
REMARK INTRA:                  -0.594
REMARK UNBOUND:                -0.734
REMARK SMILES CC(C)[NH2+]Cc1ccc(OCC2CCCCC2)nn1
REMARK SMILES IDX 6 1 7 2 8 3 9 4 18 5 19 6 5 7 4 8 2 11 1 12 3 13 10 14 11 15
REMARK SMILES IDX 12 16 13 17 17 18 14 19 16 20 15 21
REMARK H PARENT 4 9 4 10
ROOT
ATOM      1  C   UNL     1      50.493  50.489  19.945  1.00  0.00    +0.117 A 
ATOM      2  C   UNL     1      51.030  50.825  21.178  1.00  0.00    +0.037 A 
ATOM      3  C   UNL     1      51.278  52.166  21.445  1.00  0.00    +0.072 A 
ATOM      4  C   UNL     1      50.982  53.099  20.469  1.00  0.00    +0.233 A 
ATOM      5  N   UNL     1      50.463  52.742  19.274  1.00  0.00    -0.112 NA
ATOM      6  N   UNL     1      50.219  51.428  19.007  1.00  0.00    -0.146 NA
ENDROOT
BRANCH   1   7
ATOM      7  C   UNL     1      50.202  49.064  19.557  1.00  0.00    +0.320 C 
BRANCH   7   8
ATOM      8  N   UNL     1      49.706  48.959  18.139  1.00  0.00    -0.339 N 
ATOM      9  H   UNL     1      50.480  48.528  17.607  1.00  0.00    +0.346 HD
ATOM     10  H   UNL     1      49.653  49.909  17.744  1.00  0.00    +0.346 HD
BRANCH   8  11
ATOM     11  C   UNL     1      48.440  48.201  17.911  1.00  0.00    +0.176 C 
ATOM     12  C   UNL     1      47.252  49.150  17.959  1.00  0.00    +0.075 C 
ATOM     13  C   UNL     1      48.543  47.516  16.553  1.00  0.00    +0.075 C 
ENDBRANCH   8  11
ENDBRANCH   7   8
ENDBRANCH   1   7
BRANCH   4  14
ATOM     14  O   UNL     1      51.241  54.418  20.768  1.00  0.00    -0.476 OA
BRANCH  14  15
ATOM     15  C   UNL     1      51.288  55.270  19.620  1.00  0.00    +0.235 C 
BRANCH  15  16
ATOM     16  C   UNL     1      50.343  56.461  19.847  1.00  0.00    +0.027 C 
ATOM     17  C   UNL     1      48.993  56.211  19.162  1.00  0.00    +0.007 C 
ATOM     18  C   UNL     1      50.149  56.745  21.347  1.00  0.00    +0.007 C 
ATOM     19  C   UNL     1      48.013  57.356  19.404  1.00  0.00    +0.000 C 
ATOM     20  C   UNL     1      49.164  57.887  21.584  1.00  0.00    +0.000 C 
ATOM     21  C   UNL     1      47.829  57.633  20.893  1.00  0.00    +0.000 C 
ENDBRANCH  15  16
ENDBRANCH  14  15
ENDBRANCH   4  14
TORSDOF 6
ENDMDL
MODEL 5
REMARK VINA RESULT:    -6.738      3.108      7.652
REMARK INTER + INTRA:          -9.835
REMARK INTER:                  -9.277
REMARK INTRA:                  -0.558
REMARK UNBOUND:                -0.734
REMARK SMILES CC(C)[NH2+]Cc1ccc(OCC2CCCCC2)nn1
REMARK SMILES IDX 6 1 7 2 8 3 9 4 18 5 19 6 5 7 4 8 2 11 1 12 3 13 10 14 11 15
REMARK SMILES IDX 12 16 13 17 17 18 14 19 16 20 15 21
REMARK H PARENT 4 9 4 10
ROOT
ATOM      1  C   UNL     1      49.435  53.829  18.363  1.00  0.00    +0.117 A 
ATOM      2  C   UNL     1      48.300  53.853  17.568  1.00  0.00    +0.037 A 
ATOM      3  C   UNL     1      48.003  52.725  16.810  1.00  0.00    +0.072 A 
ATOM      4  C   UNL     1      48.854  51.639  16.883  1.00  0.00    +0.233 A 
ATOM      5  N   UNL     1      49.956  51.645  17.664  1.00  0.00    -0.112 NA
ATOM      6  N   UNL     1      50.252  52.748  18.407  1.00  0.00    -0.146 NA
ENDROOT
BRANCH   1   7
ATOM      7  C   UNL     1      49.849  55.004  19.208  1.00  0.00    +0.320 C 
BRANCH   7   8
ATOM      8  N   UNL     1      48.670  55.652  19.884  1.00  0.00    -0.339 N 
ATOM      9  H   UNL     1      48.144  54.878  20.323  1.00  0.00    +0.346 HD
ATOM     10  H   UNL     1      48.025  55.988  19.155  1.00  0.00    +0.346 HD
BRANCH   8  11
ATOM     11  C   UNL     1      48.958  56.715  20.892  1.00  0.00    +0.176 C 
ATOM     12  C   UNL     1      50.355  57.276  20.668  1.00  0.00    +0.075 C 
ATOM     13  C   UNL     1      47.898  57.800  20.744  1.00  0.00    +0.075 C 
ENDBRANCH   8  11
ENDBRANCH   7   8
ENDBRANCH   1   7
BRANCH   4  14
ATOM     14  O   UNL     1      48.529  50.540  16.119  1.00  0.00    -0.476 OA
BRANCH  14  15
ATOM     15  C   UNL     1      48.863  49.292  16.732  1.00  0.00    +0.235 C 
BRANCH  15  16
ATOM     16  C   UNL     1      47.570  48.501  16.984  1.00  0.00    +0.027 C 
ATOM     17  C   UNL     1      47.159  48.601  18.459  1.00  0.00    +0.007 C 
ATOM     18  C   UNL     1      46.431  48.981  16.067  1.00  0.00    +0.007 C 
ATOM     19  C   UNL     1      45.852  47.863  18.736  1.00  0.00    +0.000 C 
ATOM     20  C   UNL     1      45.125  48.243  16.352  1.00  0.00    +0.000 C 
ATOM     21  C   UNL     1      44.730  48.343  17.822  1.00  0.00    +0.000 C 
ENDBRANCH  15  16
ENDBRANCH  14  15
ENDBRANCH   4  14
TORSDOF 6
ENDMDL
