MODEL 1
REMARK VINA RESULT:    -5.376      0.000      0.000
REMARK INTER + INTRA:          -7.319
REMARK INTER:                  -6.947
REMARK INTRA:                  -0.372
REMARK UNBOUND:                -0.372
REMARK SMILES C[C@H]1C[C@H]1NC(=O)CCCCCl
REMARK SMILES IDX 8 1 6 2 5 3 7 4 4 6 2 7 3 8 1 9 9 10 10 11 11 12 12 13
REMARK H PARENT 5 5
ROOT
ATOM      1  C   UNL     1      51.630  53.699  21.993  1.00  0.00    +0.100 C 
ENDROOT
BRANCH   1   2
ATOM      2  C   UNL     1      51.584  55.216  21.979  1.00  0.00    +0.220 C 
ATOM      3  N   UNL     1      50.561  55.706  21.188  1.00  0.00    -0.353 N 
ATOM      4  O   UNL     1      52.359  55.924  22.613  1.00  0.00    -0.275 OA
ATOM      5  H   UNL     1      49.965  55.055  20.693  1.00  0.00    +0.163 HD
BRANCH   3   6
ATOM      6  C   UNL     1      50.343  57.106  21.006  1.00  0.00    +0.085 C 
ATOM      7  C   UNL     1      49.024  57.647  20.516  1.00  0.00    +0.010 C 
ATOM      8  C   UNL     1      49.444  57.871  21.941  1.00  0.00    +0.030 C 
ATOM      9  C   UNL     1      47.879  56.746  20.197  1.00  0.00    +0.010 C 
ENDBRANCH   3   6
ENDBRANCH   1   2
BRANCH   1  10
ATOM     10  C   UNL     1      50.463  53.077  21.228  1.00  0.00    +0.011 C 
BRANCH  10  11
ATOM     11  C   UNL     1      50.885  51.779  20.532  1.00  0.00    +0.017 C 
BRANCH  11  12
ATOM     12  C   UNL     1      52.224  51.241  21.025  1.00  0.00    +0.109 C 
ATOM     13 Cl   UNL     1      52.855  49.960  19.965  1.00  0.00    -0.127 Cl
ENDBRANCH  11  12
ENDBRANCH  10  11
ENDBRANCH   1  10
TORSDOF 5
ENDMDL
MODEL 2
REMARK VINA RESULT:    -4.879      4.813      6.351
REMARK INTER + INTRA:          -6.677
REMARK INTER:                  -6.372
REMARK INTRA:                  -0.305
REMARK UNBOUND:                -0.372
REMARK SMILES C[C@H]1C[C@H]1NC(=O)CCCCCl
REMARK SMILES IDX 8 1 6 2 5 3 7 4 4 6 2 7 3 8 1 9 9 10 10 11 11 12 12 13
REMARK H PARENT 5 5
ROOT
ATOM      1  C   UNL     1      47.868  57.853  19.395  1.00  0.00    +0.100 C 
ENDROOT
BRANCH   1   2
ATOM      2  C   UNL     1      47.519  59.089  18.585  1.00  0.00    +0.220 C 
ATOM      3  N   UNL     1      47.322  60.204  19.379  1.00  0.00    -0.353 N 
ATOM      4  O   UNL     1      47.440  59.097  17.361  1.00  0.00    -0.275 OA
ATOM      5  H   UNL     1      47.402  60.114  20.384  1.00  0.00    +0.163 HD
BRANCH   3   6
ATOM      6  C   UNL     1      46.961  61.473  18.833  1.00  0.00    +0.085 C 
ATOM      7  C   UNL     1      45.524  61.925  18.757  1.00  0.00    +0.010 C 
ATOM      8  C   UNL     1      46.467  62.580  19.727  1.00  0.00    +0.030 C 
ATOM      9  C   UNL     1      44.408  61.067  19.249  1.00  0.00    +0.010 C 
ENDBRANCH   3   6
ENDBRANCH   1   2
BRANCH   1  10
ATOM     10  C   UNL     1      47.583  58.039  20.885  1.00  0.00    +0.011 C 
BRANCH  10  11
ATOM     11  C   UNL     1      48.881  58.071  21.697  1.00  0.00    +0.017 C 
BRANCH  11  12
ATOM     12  C   UNL     1      50.023  57.306  21.036  1.00  0.00    +0.109 C 
ATOM     13 Cl   UNL     1      51.050  56.482  22.232  1.00  0.00    -0.127 Cl
ENDBRANCH  11  12
ENDBRANCH  10  11
ENDBRANCH   1  10
TORSDOF 5
ENDMDL
MODEL 3
REMARK VINA RESULT:    -4.760      6.133      8.732
REMARK INTER + INTRA:          -6.523
REMARK INTER:                  -6.143
REMARK INTRA:                  -0.380
REMARK UNBOUND:                -0.372
REMARK SMILES C[C@H]1C[C@H]1NC(=O)CCCCCl
REMARK SMILES IDX 8 1 6 2 5 3 7 4 4 6 2 7 3 8 1 9 9 10 10 11 11 12 12 13
REMARK H PARENT 5 5
ROOT
ATOM      1  C   UNL     1      47.411  61.448  18.333  1.00  0.00    +0.100 C 
ENDROOT
BRANCH   1   2
ATOM      2  C   UNL     1      47.402  59.930  18.280  1.00  0.00    +0.220 C 
ATOM      3  N   UNL     1      48.080  59.361  19.342  1.00  0.00    -0.353 N 
ATOM      4  O   UNL     1      46.841  59.285  17.401  1.00  0.00    -0.275 OA
ATOM      5  H   UNL     1      48.521  59.963  20.026  1.00  0.00    +0.163 HD
BRANCH   3   6
ATOM      6  C   UNL     1      48.222  57.947  19.485  1.00  0.00    +0.085 C 
ATOM      7  C   UNL     1      48.772  57.327  20.744  1.00  0.00    +0.010 C 
ATOM      8  C   UNL     1      47.316  57.173  20.406  1.00  0.00    +0.030 C 
ATOM      9  C   UNL     1      49.196  58.161  21.906  1.00  0.00    +0.010 C 
ENDBRANCH   3   6
ENDBRANCH   1   2
BRANCH   1  10
ATOM     10  C   UNL     1      46.683  61.988  19.563  1.00  0.00    +0.011 C 
BRANCH  10  11
ATOM     11  C   UNL     1      45.711  63.109  19.184  1.00  0.00    +0.017 C 
BRANCH  11  12
ATOM     12  C   UNL     1      44.257  62.777  19.501  1.00  0.00    +0.109 C 
ATOM     13 Cl   UNL     1      43.884  61.066  19.190  1.00  0.00    -0.127 Cl
ENDBRANCH  11  12
ENDBRANCH  10  11
ENDBRANCH   1  10
TORSDOF 5
ENDMDL
MODEL 4
REMARK VINA RESULT:    -4.674      1.873      2.256
REMARK INTER + INTRA:          -6.412
REMARK INTER:                  -6.022
REMARK INTRA:                  -0.390
REMARK UNBOUND:                -0.372
REMARK SMILES C[C@H]1C[C@H]1NC(=O)CCCCCl
REMARK SMILES IDX 8 1 6 2 5 3 7 4 4 6 2 7 3 8 1 9 9 10 10 11 11 12 12 13
REMARK H PARENT 5 5
ROOT
ATOM      1  C   UNL     1      51.610  53.653  20.846  1.00  0.00    +0.100 C 
ENDROOT
BRANCH   1   2
ATOM      2  C   UNL     1      50.375  54.027  20.046  1.00  0.00    +0.220 C 
ATOM      3  N   UNL     1      49.729  55.137  20.558  1.00  0.00    -0.353 N 
ATOM      4  O   UNL     1      50.006  53.421  19.046  1.00  0.00    -0.275 OA
ATOM      5  H   UNL     1      50.096  55.580  21.391  1.00  0.00    +0.163 HD
BRANCH   3   6
ATOM      6  C   UNL     1      48.530  55.654  19.981  1.00  0.00    +0.085 C 
ATOM      7  C   UNL     1      47.971  56.997  20.379  1.00  0.00    +0.010 C 
ATOM      8  C   UNL     1      48.578  56.810  19.016  1.00  0.00    +0.030 C 
ATOM      9  C   UNL     1      48.645  57.853  21.397  1.00  0.00    +0.010 C 
ENDBRANCH   3   6
ENDBRANCH   1   2
BRANCH   1  10
ATOM     10  C   UNL     1      51.324  52.563  21.878  1.00  0.00    +0.011 C 
BRANCH  10  11
ATOM     11  C   UNL     1      51.281  51.179  21.224  1.00  0.00    +0.017 C 
BRANCH  11  12
ATOM     12  C   UNL     1      52.556  50.834  20.463  1.00  0.00    +0.109 C 
ATOM     13 Cl   UNL     1      52.271  50.715  18.711  1.00  0.00    -0.127 Cl
ENDBRANCH  11  12
ENDBRANCH  10  11
ENDBRANCH   1  10
TORSDOF 5
ENDMDL
MODEL 5
REMARK VINA RESULT:    -4.592      2.692      3.162
REMARK INTER + INTRA:          -6.306
REMARK INTER:                  -5.931
REMARK INTRA:                  -0.375
REMARK UNBOUND:                -0.372
REMARK SMILES C[C@H]1C[C@H]1NC(=O)CCCCCl
REMARK SMILES IDX 8 1 6 2 5 3 7 4 4 6 2 7 3 8 1 9 9 10 10 11 11 12 12 13
REMARK H PARENT 5 5
ROOT
ATOM      1  C   UNL     1      50.802  54.002  18.986  1.00  0.00    +0.100 C 
ENDROOT
BRANCH   1   2
ATOM      2  C   UNL     1      49.405  54.595  19.019  1.00  0.00    +0.220 C 
ATOM      3  N   UNL     1      49.362  55.808  19.683  1.00  0.00    -0.353 N 
ATOM      4  O   UNL     1      48.430  54.066  18.497  1.00  0.00    -0.275 OA
ATOM      5  H   UNL     1      50.212  56.178  20.089  1.00  0.00    +0.163 HD
BRANCH   3   6
ATOM      6  C   UNL     1      48.147  56.537  19.858  1.00  0.00    +0.085 C 
ATOM      7  C   UNL     1      48.018  57.630  20.889  1.00  0.00    +0.010 C 
ATOM      8  C   UNL     1      48.046  57.977  19.428  1.00  0.00    +0.030 C 
ATOM      9  C   UNL     1      49.156  58.003  21.779  1.00  0.00    +0.010 C 
ENDBRANCH   3   6
ENDBRANCH   1   2
BRANCH   1  10
ATOM     10  C   UNL     1      50.805  52.511  19.322  1.00  0.00    +0.011 C 
BRANCH  10  11
ATOM     11  C   UNL     1      51.640  52.228  20.575  1.00  0.00    +0.017 C 
BRANCH  11  12
ATOM     12  C   UNL     1      50.960  52.676  21.864  1.00  0.00    +0.109 C 
ATOM     13 Cl   UNL     1      51.613  54.220  22.457  1.00  0.00    -0.127 Cl
ENDBRANCH  11  12
ENDBRANCH  10  11
ENDBRANCH   1  10
TORSDOF 5
ENDMDL
