MODEL 1
REMARK VINA RESULT:    -7.009      0.000      0.000
REMARK INTER + INTRA:         -10.169
REMARK INTER:                  -9.467
REMARK INTRA:                  -0.702
REMARK UNBOUND:                -0.702
REMARK SMILES CC[NH2+]Cc1ccc(Cn2nc(C)c(CC)c2C)o1
REMARK SMILES IDX 8 1 7 2 6 3 5 4 19 5 9 6 10 7 14 8 12 9 17 10 11 11 13 12
REMARK SMILES IDX 18 13 15 14 16 15 4 16 3 17 2 20 1 21
REMARK H PARENT 3 18 3 19
ROOT
ATOM      1  C   UNL     1      52.063  53.075  20.554  1.00  0.00    +0.126 A 
ATOM      2  C   UNL     1      51.654  52.947  21.866  1.00  0.00    +0.048 A 
ATOM      3  C   UNL     1      51.471  54.271  22.362  1.00  0.00    +0.052 A 
ATOM      4  C   UNL     1      51.783  55.114  21.318  1.00  0.00    +0.158 A 
ATOM      5  O   UNL     1      52.238  54.389  20.265  1.00  0.00    -0.458 OA
ENDROOT
BRANCH   1   6
ATOM      6  C   UNL     1      52.296  52.145  19.419  1.00  0.00    +0.219 C 
BRANCH   6   7
ATOM      7  N   UNL     1      51.017  51.594  18.959  1.00  0.00    -0.262 N 
ATOM      8  C   UNL     1      49.278  50.295  18.566  1.00  0.00    -0.004 A 
ATOM      9  C   UNL     1      49.226  51.498  17.811  1.00  0.00    +0.063 A 
ATOM     10  C   UNL     1      50.442  50.394  19.310  1.00  0.00    +0.039 A 
ATOM     11  N   UNL     1      50.251  52.312  18.092  1.00  0.00    -0.177 NA
ATOM     12  C   UNL     1      48.200  51.905  16.818  1.00  0.00    +0.069 C 
ATOM     13  C   UNL     1      51.054  49.449  20.282  1.00  0.00    +0.066 C 
BRANCH   8  14
ATOM     14  C   UNL     1      48.295  49.170  18.540  1.00  0.00    +0.036 C 
ATOM     15  C   UNL     1      48.631  48.126  17.486  1.00  0.00    +0.009 C 
ENDBRANCH   8  14
ENDBRANCH   6   7
ENDBRANCH   1   6
BRANCH   4  16
ATOM     16  C   UNL     1      51.672  56.563  21.036  1.00  0.00    +0.337 C 
BRANCH  16  17
ATOM     17  N   UNL     1      52.245  57.327  22.194  1.00  0.00    -0.340 N 
ATOM     18  H   UNL     1      52.669  56.645  22.843  1.00  0.00    +0.346 HD
ATOM     19  H   UNL     1      51.443  57.667  22.750  1.00  0.00    +0.346 HD
BRANCH  17  20
ATOM     20  C   UNL     1      53.182  58.418  21.862  1.00  0.00    +0.257 C 
ATOM     21  C   UNL     1      54.183  57.914  20.842  1.00  0.00    +0.071 C 
ENDBRANCH  17  20
ENDBRANCH  16  17
ENDBRANCH   4  16
TORSDOF 6
ENDMDL
MODEL 2
REMARK VINA RESULT:    -6.970      1.143      1.576
REMARK INTER + INTRA:         -10.117
REMARK INTER:                  -9.357
REMARK INTRA:                  -0.760
REMARK UNBOUND:                -0.702
REMARK SMILES CC[NH2+]Cc1ccc(Cn2nc(C)c(CC)c2C)o1
REMARK SMILES IDX 8 1 7 2 6 3 5 4 19 5 9 6 10 7 14 8 12 9 17 10 11 11 13 12
REMARK SMILES IDX 18 13 15 14 16 15 4 16 3 17 2 20 1 21
REMARK H PARENT 3 18 3 19
ROOT
ATOM      1  C   UNL     1      51.989  52.561  20.455  1.00  0.00    +0.126 A 
ATOM      2  C   UNL     1      51.668  52.431  21.790  1.00  0.00    +0.048 A 
ATOM      3  C   UNL     1      51.511  53.755  22.297  1.00  0.00    +0.052 A 
ATOM      4  C   UNL     1      51.749  54.599  21.235  1.00  0.00    +0.158 A 
ATOM      5  O   UNL     1      52.138  53.876  20.155  1.00  0.00    -0.458 OA
ENDROOT
BRANCH   1   6
ATOM      6  C   UNL     1      52.153  51.632  19.307  1.00  0.00    +0.219 C 
BRANCH   6   7
ATOM      7  N   UNL     1      50.838  51.158  18.862  1.00  0.00    -0.262 N 
ATOM      8  C   UNL     1      49.020  49.964  18.491  1.00  0.00    -0.004 A 
ATOM      9  C   UNL     1      49.032  51.167  17.734  1.00  0.00    +0.063 A 
ATOM     10  C   UNL     1      50.196  49.995  19.223  1.00  0.00    +0.039 A 
ATOM     11  N   UNL     1      50.106  51.919  18.002  1.00  0.00    -0.177 NA
ATOM     12  C   UNL     1      48.021  51.634  16.752  1.00  0.00    +0.069 C 
ATOM     13  C   UNL     1      50.762  49.017  20.190  1.00  0.00    +0.066 C 
BRANCH   8  14
ATOM     14  C   UNL     1      47.971  48.900  18.479  1.00  0.00    +0.036 C 
ATOM     15  C   UNL     1      48.266  47.802  17.468  1.00  0.00    +0.009 C 
ENDBRANCH   8  14
ENDBRANCH   6   7
ENDBRANCH   1   6
BRANCH   4  16
ATOM     16  C   UNL     1      51.612  56.047  20.961  1.00  0.00    +0.337 C 
BRANCH  16  17
ATOM     17  N   UNL     1      50.948  56.702  22.137  1.00  0.00    -0.340 N 
ATOM     18  H   UNL     1      51.679  57.184  22.684  1.00  0.00    +0.346 HD
ATOM     19  H   UNL     1      50.676  55.943  22.784  1.00  0.00    +0.346 HD
BRANCH  17  20
ATOM     20  C   UNL     1      49.813  57.596  21.836  1.00  0.00    +0.257 C 
ATOM     21  C   UNL     1      48.865  56.887  20.890  1.00  0.00    +0.071 C 
ENDBRANCH  17  20
ENDBRANCH  16  17
ENDBRANCH   4  16
TORSDOF 6
ENDMDL
MODEL 3
REMARK VINA RESULT:    -6.596      2.739      4.616
REMARK INTER + INTRA:          -9.612
REMARK INTER:                  -8.959
REMARK INTRA:                  -0.653
REMARK UNBOUND:                -0.702
REMARK SMILES CC[NH2+]Cc1ccc(Cn2nc(C)c(CC)c2C)o1
REMARK SMILES IDX 8 1 7 2 6 3 5 4 19 5 9 6 10 7 14 8 12 9 17 10 11 11 13 12
REMARK SMILES IDX 18 13 15 14 16 15 4 16 3 17 2 20 1 21
REMARK H PARENT 3 18 3 19
ROOT
ATOM      1  C   UNL     1      49.877  50.171  18.865  1.00  0.00    +0.126 A 
ATOM      2  C   UNL     1      49.859  48.934  19.477  1.00  0.00    +0.048 A 
ATOM      3  C   UNL     1      50.738  49.026  20.596  1.00  0.00    +0.052 A 
ATOM      4  C   UNL     1      51.232  50.312  20.587  1.00  0.00    +0.158 A 
ATOM      5  O   UNL     1      50.789  50.964  19.483  1.00  0.00    -0.458 OA
ENDROOT
BRANCH   1   6
ATOM      6  C   UNL     1      49.121  50.822  17.764  1.00  0.00    +0.219 C 
BRANCH   6   7
ATOM      7  N   UNL     1      48.078  49.914  17.275  1.00  0.00    -0.262 N 
ATOM      8  C   UNL     1      46.879  48.495  16.085  1.00  0.00    -0.004 A 
ATOM      9  C   UNL     1      46.164  48.982  17.214  1.00  0.00    +0.063 A 
ATOM     10  C   UNL     1      48.120  49.106  16.162  1.00  0.00    +0.039 A 
ATOM     11  N   UNL     1      46.911  49.798  17.967  1.00  0.00    -0.177 NA
ATOM     12  C   UNL     1      44.766  48.675  17.606  1.00  0.00    +0.069 C 
ATOM     13  C   UNL     1      49.303  49.011  15.266  1.00  0.00    +0.066 C 
BRANCH   8  14
ATOM     14  C   UNL     1      46.382  47.546  15.044  1.00  0.00    +0.036 C 
ATOM     15  C   UNL     1      45.975  48.251  13.759  1.00  0.00    +0.009 C 
ENDBRANCH   8  14
ENDBRANCH   6   7
ENDBRANCH   1   6
BRANCH   4  16
ATOM     16  C   UNL     1      52.034  51.162  21.495  1.00  0.00    +0.337 C 
BRANCH  16  17
ATOM     17  N   UNL     1      51.141  52.212  22.090  1.00  0.00    -0.340 N 
ATOM     18  H   UNL     1      51.011  51.985  23.089  1.00  0.00    +0.346 HD
ATOM     19  H   UNL     1      50.193  52.041  21.716  1.00  0.00    +0.346 HD
BRANCH  17  20
ATOM     20  C   UNL     1      51.560  53.614  21.900  1.00  0.00    +0.257 C 
ATOM     21  C   UNL     1      50.515  54.332  21.070  1.00  0.00    +0.071 C 
ENDBRANCH  17  20
ENDBRANCH  16  17
ENDBRANCH   4  16
TORSDOF 6
ENDMDL
MODEL 4
REMARK VINA RESULT:    -6.568      1.798      2.738
REMARK INTER + INTRA:          -9.574
REMARK INTER:                  -8.827
REMARK INTRA:                  -0.747
REMARK UNBOUND:                -0.702
REMARK SMILES CC[NH2+]Cc1ccc(Cn2nc(C)c(CC)c2C)o1
REMARK SMILES IDX 8 1 7 2 6 3 5 4 19 5 9 6 10 7 14 8 12 9 17 10 11 11 13 12
REMARK SMILES IDX 18 13 15 14 16 15 4 16 3 17 2 20 1 21
REMARK H PARENT 3 18 3 19
ROOT
ATOM      1  C   UNL     1      49.928  54.015  19.044  1.00  0.00    +0.126 A 
ATOM      2  C   UNL     1      48.623  54.410  18.832  1.00  0.00    +0.048 A 
ATOM      3  C   UNL     1      48.375  55.485  19.736  1.00  0.00    +0.052 A 
ATOM      4  C   UNL     1      49.547  55.669  20.437  1.00  0.00    +0.158 A 
ATOM      5  O   UNL     1      50.444  54.712  20.088  1.00  0.00    -0.458 OA
ENDROOT
BRANCH   1   6
ATOM      6  C   UNL     1      50.874  53.076  18.386  1.00  0.00    +0.219 C 
BRANCH   6   7
ATOM      7  N   UNL     1      50.455  51.694  18.638  1.00  0.00    -0.262 N 
ATOM      8  C   UNL     1      49.468  49.722  18.562  1.00  0.00    -0.004 A 
ATOM      9  C   UNL     1      50.298  49.859  19.708  1.00  0.00    +0.063 A 
ATOM     10  C   UNL     1      49.603  50.922  17.882  1.00  0.00    +0.039 A 
ATOM     11  N   UNL     1      50.942  51.033  19.724  1.00  0.00    -0.177 NA
ATOM     12  C   UNL     1      50.507  48.878  20.802  1.00  0.00    +0.069 C 
ATOM     13  C   UNL     1      48.977  51.394  16.619  1.00  0.00    +0.066 C 
BRANCH   8  14
ATOM     14  C   UNL     1      48.626  48.544  18.194  1.00  0.00    +0.036 C 
ATOM     15  C   UNL     1      47.183  48.691  18.653  1.00  0.00    +0.009 C 
ENDBRANCH   8  14
ENDBRANCH   6   7
ENDBRANCH   1   6
BRANCH   4  16
ATOM     16  C   UNL     1      50.085  56.667  21.388  1.00  0.00    +0.337 C 
BRANCH  16  17
ATOM     17  N   UNL     1      50.884  57.682  20.623  1.00  0.00    -0.340 N 
ATOM     18  H   UNL     1      50.310  58.536  20.538  1.00  0.00    +0.346 HD
ATOM     19  H   UNL     1      50.914  57.358  19.642  1.00  0.00    +0.346 HD
BRANCH  17  20
ATOM     20  C   UNL     1      52.234  57.982  21.141  1.00  0.00    +0.257 C 
ATOM     21  C   UNL     1      53.221  57.007  20.532  1.00  0.00    +0.071 C 
ENDBRANCH  17  20
ENDBRANCH  16  17
ENDBRANCH   4  16
TORSDOF 6
ENDMDL
MODEL 5
REMARK VINA RESULT:    -6.462      2.035      6.641
REMARK INTER + INTRA:          -9.431
REMARK INTER:                  -8.638
REMARK INTRA:                  -0.793
REMARK UNBOUND:                -0.702
REMARK SMILES CC[NH2+]Cc1ccc(Cn2nc(C)c(CC)c2C)o1
REMARK SMILES IDX 8 1 7 2 6 3 5 4 19 5 9 6 10 7 14 8 12 9 17 10 11 11 13 12
REMARK SMILES IDX 18 13 15 14 16 15 4 16 3 17 2 20 1 21
REMARK H PARENT 3 18 3 19
ROOT
ATOM      1  C   UNL     1      51.523  52.119  20.092  1.00  0.00    +0.126 A 
ATOM      2  C   UNL     1      52.609  52.309  19.263  1.00  0.00    +0.048 A 
ATOM      3  C   UNL     1      52.321  51.610  18.054  1.00  0.00    +0.052 A 
ATOM      4  C   UNL     1      51.079  51.041  18.231  1.00  0.00    +0.158 A 
ATOM      5  O   UNL     1      50.650  51.265  19.499  1.00  0.00    -0.458 OA
ENDROOT
BRANCH   1   6
ATOM      6  C   UNL     1      51.084  52.652  21.408  1.00  0.00    +0.219 C 
BRANCH   6   7
ATOM      7  N   UNL     1      51.022  54.116  21.353  1.00  0.00    -0.262 N 
ATOM      8  C   UNL     1      50.491  56.207  20.892  1.00  0.00    -0.004 A 
ATOM      9  C   UNL     1      51.675  56.117  21.674  1.00  0.00    +0.063 A 
ATOM     10  C   UNL     1      50.085  54.895  20.713  1.00  0.00    +0.039 A 
ATOM     11  N   UNL     1      51.965  54.853  22.003  1.00  0.00    -0.177 NA
ATOM     12  C   UNL     1      52.545  57.227  22.136  1.00  0.00    +0.069 C 
ATOM     13  C   UNL     1      48.924  54.332  19.974  1.00  0.00    +0.066 C 
BRANCH   8  14
ATOM     14  C   UNL     1      49.847  57.450  20.368  1.00  0.00    +0.036 C 
ATOM     15  C   UNL     1      48.666  57.897  21.217  1.00  0.00    +0.009 C 
ENDBRANCH   8  14
ENDBRANCH   6   7
ENDBRANCH   1   6
BRANCH   4  16
ATOM     16  C   UNL     1      50.089  50.337  17.386  1.00  0.00    +0.337 C 
BRANCH  16  17
ATOM     17  N   UNL     1      49.698  51.236  16.248  1.00  0.00    -0.340 N 
ATOM     18  H   UNL     1      49.566  50.645  15.412  1.00  0.00    +0.346 HD
ATOM     19  H   UNL     1      50.543  51.771  15.990  1.00  0.00    +0.346 HD
BRANCH  17  20
ATOM     20  C   UNL     1      48.539  52.121  16.479  1.00  0.00    +0.257 C 
ATOM     21  C   UNL     1      47.442  51.328  17.160  1.00  0.00    +0.071 C 
ENDBRANCH  17  20
ENDBRANCH  16  17
ENDBRANCH   4  16
TORSDOF 6
ENDMDL
