MODEL 1
REMARK VINA RESULT:    -5.722      0.000      0.000
REMARK INTER + INTRA:          -8.356
REMARK INTER:                  -7.729
REMARK INTRA:                  -0.627
REMARK UNBOUND:                -0.627
REMARK SMILES C[C@H](C[NH2+]C(C)(C)C)OC[C@H]1CCCCO1
REMARK SMILES IDX 1 1 2 2 3 3 4 4 5 7 6 8 7 9 8 10 9 11 10 12 11 13 12 14
REMARK SMILES IDX 16 15 13 16 15 17 14 18
REMARK H PARENT 4 5 4 6
ROOT
ATOM      1  C   UNL     1      50.616  49.404  14.366  1.00  0.00    +0.045 C 
ATOM      2  C   UNL     1      49.231  49.869  14.809  1.00  0.00    +0.170 C 
ENDROOT
BRANCH   2   3
ATOM      3  C   UNL     1      49.283  50.599  16.167  1.00  0.00    +0.292 C 
BRANCH   3   4
ATOM      4  N   UNL     1      50.664  50.637  16.769  1.00  0.00    -0.340 N 
ATOM      5  H   UNL     1      51.280  51.213  16.180  1.00  0.00    +0.346 HD
ATOM      6  H   UNL     1      51.052  49.686  16.683  1.00  0.00    +0.346 HD
BRANCH   4   7
ATOM      7  C   UNL     1      50.834  51.061  18.217  1.00  0.00    +0.088 C 
ATOM      8  C   UNL     1      52.299  51.392  18.500  1.00  0.00    +0.078 C 
ATOM      9  C   UNL     1      49.919  52.255  18.508  1.00  0.00    +0.078 C 
ATOM     10  C   UNL     1      50.397  49.860  19.069  1.00  0.00    +0.078 C 
ENDBRANCH   4   7
ENDBRANCH   3   4
ENDBRANCH   2   3
BRANCH   2  11
ATOM     11  O   UNL     1      48.427  48.692  14.932  1.00  0.00    -0.370 OA
BRANCH  11  12
ATOM     12  C   UNL     1      48.799  47.860  16.035  1.00  0.00    +0.192 C 
BRANCH  12  13
ATOM     13  C   UNL     1      47.560  47.368  16.796  1.00  0.00    +0.144 C 
ATOM     14  C   UNL     1      47.262  48.217  18.047  1.00  0.00    +0.034 C 
ATOM     15  O   UNL     1      46.473  47.371  15.858  1.00  0.00    -0.376 OA
ATOM     16  C   UNL     1      46.210  49.279  17.758  1.00  0.00    +0.005 C 
ATOM     17  C   UNL     1      45.200  47.325  16.495  1.00  0.00    +0.160 C 
ATOM     18  C   UNL     1      44.931  48.645  17.210  1.00  0.00    +0.029 C 
ENDBRANCH  12  13
ENDBRANCH  11  12
ENDBRANCH   2  11
TORSDOF 6
ENDMDL
MODEL 2
REMARK VINA RESULT:    -5.558      4.429      6.586
REMARK INTER + INTRA:          -8.135
REMARK INTER:                  -7.399
REMARK INTRA:                  -0.735
REMARK UNBOUND:                -0.627
REMARK SMILES C[C@H](C[NH2+]C(C)(C)C)OC[C@H]1CCCCO1
REMARK SMILES IDX 1 1 2 2 3 3 4 4 5 7 6 8 7 9 8 10 9 11 10 12 11 13 12 14
REMARK SMILES IDX 16 15 13 16 15 17 14 18
REMARK H PARENT 4 5 4 6
ROOT
ATOM      1  C   UNL     1      50.096  53.737  20.141  1.00  0.00    +0.045 C 
ATOM      2  C   UNL     1      51.410  54.263  19.569  1.00  0.00    +0.170 C 
ENDROOT
BRANCH   2   3
ATOM      3  C   UNL     1      51.339  55.777  19.277  1.00  0.00    +0.292 C 
BRANCH   3   4
ATOM      4  N   UNL     1      52.258  56.593  20.148  1.00  0.00    -0.340 N 
ATOM      5  H   UNL     1      52.683  57.346  19.590  1.00  0.00    +0.346 HD
ATOM      6  H   UNL     1      53.053  55.985  20.395  1.00  0.00    +0.346 HD
BRANCH   4   7
ATOM      7  C   UNL     1      51.729  57.184  21.443  1.00  0.00    +0.088 C 
ATOM      8  C   UNL     1      50.260  57.576  21.281  1.00  0.00    +0.078 C 
ATOM      9  C   UNL     1      51.921  56.172  22.578  1.00  0.00    +0.078 C 
ATOM     10  C   UNL     1      52.575  58.435  21.721  1.00  0.00    +0.078 C 
ENDBRANCH   4   7
ENDBRANCH   3   4
ENDBRANCH   2   3
BRANCH   2  11
ATOM     11  O   UNL     1      51.634  53.553  18.348  1.00  0.00    -0.370 OA
BRANCH  11  12
ATOM     12  C   UNL     1      52.666  52.567  18.441  1.00  0.00    +0.192 C 
BRANCH  12  13
ATOM     13  C   UNL     1      52.119  51.166  18.133  1.00  0.00    +0.144 C 
ATOM     14  C   UNL     1      52.271  50.200  19.323  1.00  0.00    +0.034 C 
ATOM     15  O   UNL     1      50.751  51.338  17.736  1.00  0.00    -0.376 OA
ATOM     16  C   UNL     1      50.988  50.121  20.140  1.00  0.00    +0.005 C 
ATOM     17  C   UNL     1      50.005  50.126  17.802  1.00  0.00    +0.160 C 
ATOM     18  C   UNL     1      49.805  49.722  19.259  1.00  0.00    +0.029 C 
ENDBRANCH  12  13
ENDBRANCH  11  12
ENDBRANCH   2  11
TORSDOF 6
ENDMDL
MODEL 3
REMARK VINA RESULT:    -5.553      4.301      7.417
REMARK INTER + INTRA:          -8.129
REMARK INTER:                  -7.790
REMARK INTRA:                  -0.339
REMARK UNBOUND:                -0.627
REMARK SMILES C[C@H](C[NH2+]C(C)(C)C)OC[C@H]1CCCCO1
REMARK SMILES IDX 1 1 2 2 3 3 4 4 5 7 6 8 7 9 8 10 9 11 10 12 11 13 12 14
REMARK SMILES IDX 16 15 13 16 15 17 14 18
REMARK H PARENT 4 5 4 6
ROOT
ATOM      1  C   UNL     1      52.407  50.635  20.302  1.00  0.00    +0.045 C 
ATOM      2  C   UNL     1      50.922  50.886  20.050  1.00  0.00    +0.170 C 
ENDROOT
BRANCH   2   3
ATOM      3  C   UNL     1      50.512  50.485  18.617  1.00  0.00    +0.292 C 
BRANCH   3   4
ATOM      4  N   UNL     1      49.702  49.217  18.563  1.00  0.00    -0.340 N 
ATOM      5  H   UNL     1      49.548  48.865  19.518  1.00  0.00    +0.346 HD
ATOM      6  H   UNL     1      50.300  48.500  18.125  1.00  0.00    +0.346 HD
BRANCH   4   7
ATOM      7  C   UNL     1      48.378  49.209  17.820  1.00  0.00    +0.088 C 
ATOM      8  C   UNL     1      47.297  48.549  18.676  1.00  0.00    +0.078 C 
ATOM      9  C   UNL     1      48.000  50.645  17.442  1.00  0.00    +0.078 C 
ATOM     10  C   UNL     1      48.607  48.385  16.544  1.00  0.00    +0.078 C 
ENDBRANCH   4   7
ENDBRANCH   3   4
ENDBRANCH   2   3
BRANCH   2  11
ATOM     11  O   UNL     1      50.711  52.289  20.230  1.00  0.00    -0.370 OA
BRANCH  11  12
ATOM     12  C   UNL     1      51.384  52.825  21.372  1.00  0.00    +0.192 C 
BRANCH  12  13
ATOM     13  C   UNL     1      51.847  54.266  21.113  1.00  0.00    +0.144 C 
ATOM     14  C   UNL     1      50.907  55.024  20.157  1.00  0.00    +0.034 C 
ATOM     15  O   UNL     1      51.953  54.900  22.397  1.00  0.00    -0.376 OA
ATOM     16  C   UNL     1      49.903  55.874  20.925  1.00  0.00    +0.005 C 
ATOM     17  C   UNL     1      51.984  56.321  22.304  1.00  0.00    +0.160 C 
ATOM     18  C   UNL     1      50.617  56.840  21.870  1.00  0.00    +0.029 C 
ENDBRANCH  12  13
ENDBRANCH  11  12
ENDBRANCH   2  11
TORSDOF 6
ENDMDL
MODEL 4
REMARK VINA RESULT:    -5.485      1.800      2.622
REMARK INTER + INTRA:          -8.036
REMARK INTER:                  -7.315
REMARK INTRA:                  -0.720
REMARK UNBOUND:                -0.627
REMARK SMILES C[C@H](C[NH2+]C(C)(C)C)OC[C@H]1CCCCO1
REMARK SMILES IDX 1 1 2 2 3 3 4 4 5 7 6 8 7 9 8 10 9 11 10 12 11 13 12 14
REMARK SMILES IDX 16 15 13 16 15 17 14 18
REMARK H PARENT 4 5 4 6
ROOT
ATOM      1  C   UNL     1      48.632  51.773  16.599  1.00  0.00    +0.045 C 
ATOM      2  C   UNL     1      49.256  50.887  17.674  1.00  0.00    +0.170 C 
ENDROOT
BRANCH   2   3
ATOM      3  C   UNL     1      50.694  51.330  18.014  1.00  0.00    +0.292 C 
BRANCH   3   4
ATOM      4  N   UNL     1      50.872  52.826  18.004  1.00  0.00    -0.340 N 
ATOM      5  H   UNL     1      50.263  53.241  17.287  1.00  0.00    +0.346 HD
ATOM      6  H   UNL     1      51.827  53.010  17.660  1.00  0.00    +0.346 HD
BRANCH   4   7
ATOM      7  C   UNL     1      50.706  53.605  19.297  1.00  0.00    +0.088 C 
ATOM      8  C   UNL     1      49.331  54.271  19.337  1.00  0.00    +0.078 C 
ATOM      9  C   UNL     1      50.911  52.662  20.488  1.00  0.00    +0.078 C 
ATOM     10  C   UNL     1      51.805  54.678  19.296  1.00  0.00    +0.078 C 
ENDBRANCH   4   7
ENDBRANCH   3   4
ENDBRANCH   2   3
BRANCH   2  11
ATOM     11  O   UNL     1      49.281  49.559  17.142  1.00  0.00    -0.370 OA
BRANCH  11  12
ATOM     12  C   UNL     1      48.976  48.551  18.110  1.00  0.00    +0.192 C 
BRANCH  12  13
ATOM     13  C   UNL     1      47.702  47.784  17.726  1.00  0.00    +0.144 C 
ATOM     14  C   UNL     1      46.443  48.360  18.402  1.00  0.00    +0.034 C 
ATOM     15  O   UNL     1      47.620  47.818  16.293  1.00  0.00    -0.376 OA
ATOM     16  C   UNL     1      45.706  49.319  17.477  1.00  0.00    +0.005 C 
ATOM     17  C   UNL     1      46.316  47.505  15.813  1.00  0.00    +0.160 C 
ATOM     18  C   UNL     1      45.353  48.638  16.155  1.00  0.00    +0.029 C 
ENDBRANCH  12  13
ENDBRANCH  11  12
ENDBRANCH   2  11
TORSDOF 6
ENDMDL
MODEL 5
REMARK VINA RESULT:    -5.367      2.563      3.660
REMARK INTER + INTRA:          -7.877
REMARK INTER:                  -7.389
REMARK INTRA:                  -0.488
REMARK UNBOUND:                -0.627
REMARK SMILES C[C@H](C[NH2+]C(C)(C)C)OC[C@H]1CCCCO1
REMARK SMILES IDX 1 1 2 2 3 3 4 4 5 7 6 8 7 9 8 10 9 11 10 12 11 13 12 14
REMARK SMILES IDX 16 15 13 16 15 17 14 18
REMARK H PARENT 4 5 4 6
ROOT
ATOM      1  C   UNL     1      51.422  50.403  20.067  1.00  0.00    +0.045 C 
ATOM      2  C   UNL     1      51.523  50.980  18.657  1.00  0.00    +0.170 C 
ENDROOT
BRANCH   2   3
ATOM      3  C   UNL     1      51.357  52.514  18.657  1.00  0.00    +0.292 C 
BRANCH   3   4
ATOM      4  N   UNL     1      52.184  53.201  19.711  1.00  0.00    -0.340 N 
ATOM      5  H   UNL     1      52.929  53.751  19.262  1.00  0.00    +0.346 HD
ATOM      6  H   UNL     1      52.690  52.462  20.221  1.00  0.00    +0.346 HD
BRANCH   4   7
ATOM      7  C   UNL     1      51.496  54.069  20.750  1.00  0.00    +0.088 C 
ATOM      8  C   UNL     1      51.603  53.423  22.131  1.00  0.00    +0.078 C 
ATOM      9  C   UNL     1      52.115  55.470  20.732  1.00  0.00    +0.078 C 
ATOM     10  C   UNL     1      50.021  54.154  20.328  1.00  0.00    +0.078 C 
ENDBRANCH   4   7
ENDBRANCH   3   4
ENDBRANCH   2   3
BRANCH   2  11
ATOM     11  O   UNL     1      50.464  50.387  17.899  1.00  0.00    -0.370 OA
BRANCH  11  12
ATOM     12  C   UNL     1      49.364  49.950  18.701  1.00  0.00    +0.192 C 
BRANCH  12  13
ATOM     13  C   UNL     1      48.604  48.804  18.018  1.00  0.00    +0.144 C 
ATOM     14  C   UNL     1      47.120  48.754  18.430  1.00  0.00    +0.034 C 
ATOM     15  O   UNL     1      48.775  48.984  16.604  1.00  0.00    -0.376 OA
ATOM     16  C   UNL     1      46.237  49.459  17.410  1.00  0.00    +0.005 C 
ATOM     17  C   UNL     1      47.821  48.252  15.839  1.00  0.00    +0.160 C 
ATOM     18  C   UNL     1      46.437  48.868  16.014  1.00  0.00    +0.029 C 
ENDBRANCH  12  13
ENDBRANCH  11  12
ENDBRANCH   2  11
TORSDOF 6
ENDMDL
