MODEL 1
REMARK VINA RESULT:    -8.102      0.000      0.000
REMARK INTER + INTRA:         -13.320
REMARK INTER:                 -12.364
REMARK INTRA:                  -0.956
REMARK UNBOUND:                -0.956
REMARK SMILES C=CCNC(=O)c1ccc(NC(=O)C(=O)N[C@H](CC(C)C)c2cccs2)cc1
REMARK SMILES IDX 16 1 14 2 15 3 17 5 18 6 19 7 20 8 21 9 22 10 23 11 26 12
REMARK SMILES IDX 24 13 25 14 12 15 13 16 11 17 10 19 9 20 27 21 8 22 28 23
REMARK SMILES IDX 7 24 5 25 6 26 4 27 3 29 2 30 1 31
REMARK H PARENT 16 4 11 18 4 28
ROOT
ATOM      1  N   UNL     1      49.019  54.255  18.607  1.00  0.00    -0.340 N 
ATOM      2  C   UNL     1      49.531  53.157  17.962  1.00  0.00    +0.310 C 
ATOM      3  O   UNL     1      50.660  52.704  18.084  1.00  0.00    -0.264 OA
ATOM      4  H   UNL     1      48.048  54.487  18.413  1.00  0.00    +0.164 HD
ENDROOT
BRANCH   1   5
ATOM      5  C   UNL     1      49.780  55.028  19.572  1.00  0.00    +0.123 C 
BRANCH   5   6
ATOM      6  C   UNL     1      49.993  54.212  20.865  1.00  0.00    +0.033 C 
BRANCH   6   7
ATOM      7  C   UNL     1      51.428  54.115  21.429  1.00  0.00    -0.015 C 
ATOM      8  C   UNL     1      51.722  55.175  22.491  1.00  0.00    +0.007 C 
ATOM      9  C   UNL     1      51.795  52.724  21.943  1.00  0.00    +0.007 C 
ENDBRANCH   6   7
ENDBRANCH   5   6
BRANCH   5  10
ATOM     10  C   UNL     1      49.014  56.310  19.784  1.00  0.00    +0.027 A 
ATOM     11  C   UNL     1      48.774  57.004  20.957  1.00  0.00    +0.017 A 
ATOM     12  S   UNL     1      48.254  57.077  18.446  1.00  0.00    -0.147 S 
ATOM     13  C   UNL     1      47.986  58.173  20.750  1.00  0.00    +0.012 A 
ATOM     14  C   UNL     1      47.638  58.332  19.428  1.00  0.00    +0.065 A 
ENDBRANCH   5  10
ENDBRANCH   1   5
BRANCH   2  15
ATOM     15  C   UNL     1      48.529  52.469  17.009  1.00  0.00    +0.313 C 
ATOM     16  O   UNL     1      48.103  53.098  16.050  1.00  0.00    -0.263 OA
ATOM     17  N   UNL     1      48.245  51.181  17.410  1.00  0.00    -0.318 N 
ATOM     18  H   UNL     1      48.728  50.895  18.260  1.00  0.00    +0.170 HD
BRANCH  17  19
ATOM     19  C   UNL     1      47.387  50.255  16.796  1.00  0.00    +0.041 A 
ATOM     20  C   UNL     1      47.653  49.648  15.568  1.00  0.00    +0.027 A 
ATOM     21  C   UNL     1      46.204  49.932  17.472  1.00  0.00    +0.027 A 
ATOM     22  C   UNL     1      46.747  48.732  15.020  1.00  0.00    +0.016 A 
ATOM     23  C   UNL     1      45.294  49.018  16.927  1.00  0.00    +0.016 A 
ATOM     24  C   UNL     1      45.558  48.422  15.689  1.00  0.00    +0.039 A 
BRANCH  24  25
ATOM     25  C   UNL     1      44.627  47.441  15.067  1.00  0.00    +0.251 C 
ATOM     26  O   UNL     1      43.630  47.071  15.676  1.00  0.00    -0.269 OA
ATOM     27  N   UNL     1      44.978  46.974  13.819  1.00  0.00    -0.349 N 
ATOM     28  H   UNL     1      45.911  47.143  13.474  1.00  0.00    +0.164 HD
BRANCH  27  29
ATOM     29  C   UNL     1      44.219  45.942  13.156  1.00  0.00    +0.143 C 
BRANCH  29  30
ATOM     30  C   UNL     1      44.816  45.745  11.798  1.00  0.00    -0.014 C 
ATOM     31  C   UNL     1      45.628  46.618  11.185  1.00  0.00    +0.006 C 
ENDBRANCH  29  30
ENDBRANCH  27  29
ENDBRANCH  24  25
ENDBRANCH  17  19
ENDBRANCH   2  15
TORSDOF 9
ENDMDL
MODEL 2
REMARK VINA RESULT:    -8.026      1.835      2.355
REMARK INTER + INTRA:         -13.205
REMARK INTER:                 -12.293
REMARK INTRA:                  -0.912
REMARK UNBOUND:                -0.956
REMARK SMILES C=CCNC(=O)c1ccc(NC(=O)C(=O)N[C@H](CC(C)C)c2cccs2)cc1
REMARK SMILES IDX 16 1 14 2 15 3 17 5 18 6 19 7 20 8 21 9 22 10 23 11 26 12
REMARK SMILES IDX 24 13 25 14 12 15 13 16 11 17 10 19 9 20 27 21 8 22 28 23
REMARK SMILES IDX 7 24 5 25 6 26 4 27 3 29 2 30 1 31
REMARK H PARENT 16 4 11 18 4 28
ROOT
ATOM      1  N   UNL     1      50.922  54.152  18.971  1.00  0.00    -0.340 N 
ATOM      2  C   UNL     1      51.757  53.179  18.483  1.00  0.00    +0.310 C 
ATOM      3  O   UNL     1      52.974  53.250  18.380  1.00  0.00    -0.264 OA
ATOM      4  H   UNL     1      49.932  53.925  19.014  1.00  0.00    +0.164 HD
ENDROOT
BRANCH   1   5
ATOM      5  C   UNL     1      51.405  55.429  19.468  1.00  0.00    +0.123 C 
BRANCH   5   6
ATOM      6  C   UNL     1      52.182  55.231  20.788  1.00  0.00    +0.033 C 
BRANCH   6   7
ATOM      7  C   UNL     1      51.427  54.607  21.983  1.00  0.00    -0.015 C 
ATOM      8  C   UNL     1      51.674  53.105  22.124  1.00  0.00    +0.007 C 
ATOM      9  C   UNL     1      51.681  55.319  23.310  1.00  0.00    +0.007 C 
ENDBRANCH   6   7
ENDBRANCH   5   6
BRANCH   5  10
ATOM     10  C   UNL     1      50.191  56.313  19.606  1.00  0.00    +0.027 A 
ATOM     11  C   UNL     1      49.919  57.286  20.552  1.00  0.00    +0.017 A 
ATOM     12  S   UNL     1      48.883  56.140  18.505  1.00  0.00    -0.147 S 
ATOM     13  C   UNL     1      48.647  57.899  20.357  1.00  0.00    +0.012 A 
ATOM     14  C   UNL     1      47.982  57.370  19.275  1.00  0.00    +0.065 A 
ENDBRANCH   5  10
ENDBRANCH   1   5
BRANCH   2  15
ATOM     15  C   UNL     1      51.027  51.891  18.046  1.00  0.00    +0.313 C 
ATOM     16  O   UNL     1      51.681  50.980  17.560  1.00  0.00    -0.263 OA
ATOM     17  N   UNL     1      49.670  51.970  18.276  1.00  0.00    -0.318 N 
ATOM     18  H   UNL     1      49.368  52.853  18.686  1.00  0.00    +0.170 HD
BRANCH  17  19
ATOM     19  C   UNL     1      48.691  50.999  18.011  1.00  0.00    +0.041 A 
ATOM     20  C   UNL     1      47.660  51.170  17.086  1.00  0.00    +0.027 A 
ATOM     21  C   UNL     1      48.775  49.794  18.720  1.00  0.00    +0.027 A 
ATOM     22  C   UNL     1      46.722  50.153  16.876  1.00  0.00    +0.016 A 
ATOM     23  C   UNL     1      47.837  48.775  18.514  1.00  0.00    +0.016 A 
ATOM     24  C   UNL     1      46.797  48.957  17.597  1.00  0.00    +0.039 A 
BRANCH  24  25
ATOM     25  C   UNL     1      45.778  47.903  17.337  1.00  0.00    +0.251 C 
ATOM     26  O   UNL     1      45.653  46.965  18.115  1.00  0.00    -0.269 OA
ATOM     27  N   UNL     1      45.039  48.042  16.181  1.00  0.00    -0.349 N 
ATOM     28  H   UNL     1      45.340  48.703  15.480  1.00  0.00    +0.164 HD
BRANCH  27  29
ATOM     29  C   UNL     1      44.096  47.035  15.760  1.00  0.00    +0.143 C 
BRANCH  29  30
ATOM     30  C   UNL     1      44.650  46.385  14.532  1.00  0.00    -0.014 C 
ATOM     31  C   UNL     1      45.247  47.036  13.524  1.00  0.00    +0.006 C 
ENDBRANCH  29  30
ENDBRANCH  27  29
ENDBRANCH  24  25
ENDBRANCH  17  19
ENDBRANCH   2  15
TORSDOF 9
ENDMDL
MODEL 3
REMARK VINA RESULT:    -7.871      1.789      2.332
REMARK INTER + INTRA:         -12.969
REMARK INTER:                 -11.817
REMARK INTRA:                  -1.152
REMARK UNBOUND:                -0.956
REMARK SMILES C=CCNC(=O)c1ccc(NC(=O)C(=O)N[C@H](CC(C)C)c2cccs2)cc1
REMARK SMILES IDX 16 1 14 2 15 3 17 5 18 6 19 7 20 8 21 9 22 10 23 11 26 12
REMARK SMILES IDX 24 13 25 14 12 15 13 16 11 17 10 19 9 20 27 21 8 22 28 23
REMARK SMILES IDX 7 24 5 25 6 26 4 27 3 29 2 30 1 31
REMARK H PARENT 16 4 11 18 4 28
ROOT
ATOM      1  N   UNL     1      49.100  54.476  18.753  1.00  0.00    -0.340 N 
ATOM      2  C   UNL     1      50.140  53.626  18.471  1.00  0.00    +0.310 C 
ATOM      3  O   UNL     1      51.330  53.910  18.466  1.00  0.00    -0.264 OA
ATOM      4  H   UNL     1      48.166  54.076  18.739  1.00  0.00    +0.164 HD
ENDROOT
BRANCH   1   5
ATOM      5  C   UNL     1      49.297  55.868  19.119  1.00  0.00    +0.123 C 
BRANCH   5   6
ATOM      6  C   UNL     1      48.898  56.096  20.593  1.00  0.00    +0.033 C 
BRANCH   6   7
ATOM      7  C   UNL     1      49.726  57.107  21.417  1.00  0.00    -0.015 C 
ATOM      8  C   UNL     1      50.981  57.583  20.685  1.00  0.00    +0.007 C 
ATOM      9  C   UNL     1      48.916  58.298  21.923  1.00  0.00    +0.007 C 
ENDBRANCH   6   7
ENDBRANCH   5   6
BRANCH   5  10
ATOM     10  C   UNL     1      48.489  56.680  18.138  1.00  0.00    +0.027 A 
ATOM     11  C   UNL     1      47.827  57.880  18.330  1.00  0.00    +0.017 A 
ATOM     12  S   UNL     1      48.259  56.098  16.537  1.00  0.00    -0.147 S 
ATOM     13  C   UNL     1      47.153  58.328  17.158  1.00  0.00    +0.012 A 
ATOM     14  C   UNL     1      47.310  57.452  16.108  1.00  0.00    +0.065 A 
ENDBRANCH   5  10
ENDBRANCH   1   5
BRANCH   2  15
ATOM     15  C   UNL     1      49.695  52.183  18.144  1.00  0.00    +0.313 C 
ATOM     16  O   UNL     1      50.188  51.259  18.775  1.00  0.00    -0.263 OA
ATOM     17  N   UNL     1      48.763  52.154  17.129  1.00  0.00    -0.318 N 
ATOM     18  H   UNL     1      48.524  53.072  16.757  1.00  0.00    +0.170 HD
BRANCH  17  19
ATOM     19  C   UNL     1      48.134  51.031  16.567  1.00  0.00    +0.041 A 
ATOM     20  C   UNL     1      48.534  50.436  15.371  1.00  0.00    +0.027 A 
ATOM     21  C   UNL     1      47.048  50.489  17.267  1.00  0.00    +0.027 A 
ATOM     22  C   UNL     1      47.856  49.316  14.876  1.00  0.00    +0.016 A 
ATOM     23  C   UNL     1      46.366  49.370  16.774  1.00  0.00    +0.016 A 
ATOM     24  C   UNL     1      46.761  48.786  15.567  1.00  0.00    +0.039 A 
BRANCH  24  25
ATOM     25  C   UNL     1      46.074  47.592  15.002  1.00  0.00    +0.251 C 
ATOM     26  O   UNL     1      46.022  46.551  15.647  1.00  0.00    -0.269 OA
ATOM     27  N   UNL     1      45.551  47.733  13.734  1.00  0.00    -0.349 N 
ATOM     28  H   UNL     1      45.819  48.530  13.176  1.00  0.00    +0.164 HD
BRANCH  27  29
ATOM     29  C   UNL     1      44.955  46.621  13.033  1.00  0.00    +0.143 C 
BRANCH  29  30
ATOM     30  C   UNL     1      45.167  46.847  11.569  1.00  0.00    -0.014 C 
ATOM     31  C   UNL     1      45.654  47.973  11.031  1.00  0.00    +0.006 C 
ENDBRANCH  29  30
ENDBRANCH  27  29
ENDBRANCH  24  25
ENDBRANCH  17  19
ENDBRANCH   2  15
TORSDOF 9
ENDMDL
MODEL 4
REMARK VINA RESULT:    -7.391      6.592     10.175
REMARK INTER + INTRA:         -12.235
REMARK INTER:                 -11.103
REMARK INTRA:                  -1.132
REMARK UNBOUND:                -0.956
REMARK SMILES C=CCNC(=O)c1ccc(NC(=O)C(=O)N[C@H](CC(C)C)c2cccs2)cc1
REMARK SMILES IDX 16 1 14 2 15 3 17 5 18 6 19 7 20 8 21 9 22 10 23 11 26 12
REMARK SMILES IDX 24 13 25 14 12 15 13 16 11 17 10 19 9 20 27 21 8 22 28 23
REMARK SMILES IDX 7 24 5 25 6 26 4 27 3 29 2 30 1 31
REMARK H PARENT 16 4 11 18 4 28
ROOT
ATOM      1  N   UNL     1      46.016  61.521  17.588  1.00  0.00    -0.340 N 
ATOM      2  C   UNL     1      45.998  60.712  18.696  1.00  0.00    +0.310 C 
ATOM      3  O   UNL     1      45.073  60.584  19.487  1.00  0.00    -0.264 OA
ATOM      4  H   UNL     1      46.856  61.493  17.016  1.00  0.00    +0.164 HD
ENDROOT
BRANCH   1   5
ATOM      5  C   UNL     1      44.884  62.339  17.190  1.00  0.00    +0.123 C 
BRANCH   5   6
ATOM      6  C   UNL     1      44.276  61.809  15.873  1.00  0.00    +0.033 C 
BRANCH   6   7
ATOM      7  C   UNL     1      43.148  60.759  15.970  1.00  0.00    -0.015 C 
ATOM      8  C   UNL     1      43.638  59.333  15.717  1.00  0.00    +0.007 C 
ATOM      9  C   UNL     1      42.353  60.828  17.273  1.00  0.00    +0.007 C 
ENDBRANCH   6   7
ENDBRANCH   5   6
BRANCH   5  10
ATOM     10  C   UNL     1      45.399  63.753  17.095  1.00  0.00    +0.027 A 
ATOM     11  C   UNL     1      46.705  64.208  17.039  1.00  0.00    +0.017 A 
ATOM     12  S   UNL     1      44.287  65.064  17.089  1.00  0.00    -0.147 S 
ATOM     13  C   UNL     1      46.787  65.629  16.971  1.00  0.00    +0.012 A 
ATOM     14  C   UNL     1      45.544  66.218  16.987  1.00  0.00    +0.065 A 
ENDBRANCH   5  10
ENDBRANCH   1   5
BRANCH   2  15
ATOM     15  C   UNL     1      47.298  59.905  18.902  1.00  0.00    +0.313 C 
ATOM     16  O   UNL     1      48.272  60.174  18.213  1.00  0.00    -0.263 OA
ATOM     17  N   UNL     1      47.154  58.946  19.882  1.00  0.00    -0.318 N 
ATOM     18  H   UNL     1      46.227  58.918  20.303  1.00  0.00    +0.170 HD
BRANCH  17  19
ATOM     19  C   UNL     1      48.115  58.032  20.342  1.00  0.00    +0.041 A 
ATOM     20  C   UNL     1      48.930  58.257  21.452  1.00  0.00    +0.027 A 
ATOM     21  C   UNL     1      48.244  56.828  19.638  1.00  0.00    +0.027 A 
ATOM     22  C   UNL     1      49.866  57.294  21.851  1.00  0.00    +0.016 A 
ATOM     23  C   UNL     1      49.179  55.864  20.031  1.00  0.00    +0.016 A 
ATOM     24  C   UNL     1      50.004  56.100  21.136  1.00  0.00    +0.039 A 
BRANCH  24  25
ATOM     25  C   UNL     1      51.011  55.106  21.600  1.00  0.00    +0.251 C 
ATOM     26  O   UNL     1      52.096  55.485  22.026  1.00  0.00    -0.269 OA
ATOM     27  N   UNL     1      50.655  53.779  21.485  1.00  0.00    -0.349 N 
ATOM     28  H   UNL     1      49.852  53.531  20.926  1.00  0.00    +0.164 HD
BRANCH  27  29
ATOM     29  C   UNL     1      51.580  52.718  21.799  1.00  0.00    +0.143 C 
BRANCH  29  30
ATOM     30  C   UNL     1      51.399  51.644  20.772  1.00  0.00    -0.014 C 
ATOM     31  C   UNL     1      50.576  51.725  19.718  1.00  0.00    +0.006 C 
ENDBRANCH  29  30
ENDBRANCH  27  29
ENDBRANCH  24  25
ENDBRANCH  17  19
ENDBRANCH   2  15
TORSDOF 9
ENDMDL
MODEL 5
REMARK VINA RESULT:    -7.196      6.206      9.498
REMARK INTER + INTRA:         -11.938
REMARK INTER:                 -11.104
REMARK INTRA:                  -0.834
REMARK UNBOUND:                -0.956
REMARK SMILES C=CCNC(=O)c1ccc(NC(=O)C(=O)N[C@H](CC(C)C)c2cccs2)cc1
REMARK SMILES IDX 16 1 14 2 15 3 17 5 18 6 19 7 20 8 21 9 22 10 23 11 26 12
REMARK SMILES IDX 24 13 25 14 12 15 13 16 11 17 10 19 9 20 27 21 8 22 28 23
REMARK SMILES IDX 7 24 5 25 6 26 4 27 3 29 2 30 1 31
REMARK H PARENT 16 4 11 18 4 28
ROOT
ATOM      1  N   UNL     1      46.651  61.133  18.627  1.00  0.00    -0.340 N 
ATOM      2  C   UNL     1      46.855  59.821  18.281  1.00  0.00    +0.310 C 
ATOM      3  O   UNL     1      46.509  59.283  17.238  1.00  0.00    -0.264 OA
ATOM      4  H   UNL     1      47.024  61.432  19.524  1.00  0.00    +0.164 HD
ENDROOT
BRANCH   1   5
ATOM      5  C   UNL     1      45.994  62.087  17.751  1.00  0.00    +0.123 C 
BRANCH   5   6
ATOM      6  C   UNL     1      46.776  63.418  17.724  1.00  0.00    +0.033 C 
BRANCH   6   7
ATOM      7  C   UNL     1      46.137  64.616  16.988  1.00  0.00    -0.015 C 
ATOM      8  C   UNL     1      47.005  65.874  17.035  1.00  0.00    +0.007 C 
ATOM      9  C   UNL     1      45.721  64.305  15.552  1.00  0.00    +0.007 C 
ENDBRANCH   6   7
ENDBRANCH   5   6
BRANCH   5  10
ATOM     10  C   UNL     1      44.581  62.224  18.260  1.00  0.00    +0.027 A 
ATOM     11  C   UNL     1      44.126  62.778  19.444  1.00  0.00    +0.017 A 
ATOM     12  S   UNL     1      43.277  61.595  17.333  1.00  0.00    -0.147 S 
ATOM     13  C   UNL     1      42.709  62.704  19.575  1.00  0.00    +0.012 A 
ATOM     14  C   UNL     1      42.124  62.087  18.494  1.00  0.00    +0.065 A 
ENDBRANCH   5  10
ENDBRANCH   1   5
BRANCH   2  15
ATOM     15  C   UNL     1      47.607  59.002  19.352  1.00  0.00    +0.313 C 
ATOM     16  O   UNL     1      47.636  59.422  20.500  1.00  0.00    -0.263 OA
ATOM     17  N   UNL     1      48.168  57.861  18.821  1.00  0.00    -0.318 N 
ATOM     18  H   UNL     1      48.006  57.744  17.822  1.00  0.00    +0.170 HD
BRANCH  17  19
ATOM     19  C   UNL     1      48.919  56.878  19.486  1.00  0.00    +0.041 A 
ATOM     20  C   UNL     1      49.963  57.165  20.366  1.00  0.00    +0.027 A 
ATOM     21  C   UNL     1      48.581  55.541  19.245  1.00  0.00    +0.027 A 
ATOM     22  C   UNL     1      50.664  56.128  20.994  1.00  0.00    +0.016 A 
ATOM     23  C   UNL     1      49.281  54.501  19.868  1.00  0.00    +0.016 A 
ATOM     24  C   UNL     1      50.337  54.792  20.739  1.00  0.00    +0.039 A 
BRANCH  24  25
ATOM     25  C   UNL     1      51.110  53.725  21.432  1.00  0.00    +0.251 C 
ATOM     26  O   UNL     1      51.933  54.023  22.290  1.00  0.00    -0.269 OA
ATOM     27  N   UNL     1      50.862  52.431  21.026  1.00  0.00    -0.349 N 
ATOM     28  H   UNL     1      50.347  52.273  20.172  1.00  0.00    +0.164 HD
BRANCH  27  29
ATOM     29  C   UNL     1      51.620  51.318  21.542  1.00  0.00    +0.143 C 
BRANCH  29  30
ATOM     30  C   UNL     1      51.587  50.234  20.511  1.00  0.00    -0.014 C 
ATOM     31  C   UNL     1      50.617  49.316  20.396  1.00  0.00    +0.006 C 
ENDBRANCH  29  30
ENDBRANCH  27  29
ENDBRANCH  24  25
ENDBRANCH  17  19
ENDBRANCH   2  15
TORSDOF 9
ENDMDL
