MODEL 1
REMARK VINA RESULT:    -7.643      0.000      0.000
REMARK INTER + INTRA:         -10.063
REMARK INTER:                 -10.100
REMARK INTRA:                   0.037
REMARK UNBOUND:                 0.037
REMARK SMILES COC(=O)C(C)(C)NC(=O)[C@@](C)(N)c1ccccc1
REMARK SMILES IDX 9 1 10 2 8 3 11 5 12 6 14 7 15 8 19 9 16 10 18 11 17 12
REMARK SMILES IDX 13 13 5 16 6 17 7 18 3 19 4 20 2 21 1 22
REMARK H PARENT 8 4 13 14 13 15
ROOT
ATOM      1  C   UNL     1      51.761  54.610  20.045  1.00  0.00    +0.245 C 
ATOM      2  O   UNL     1      52.025  55.100  18.946  1.00  0.00    -0.273 OA
ATOM      3  N   UNL     1      51.600  53.254  20.235  1.00  0.00    -0.339 N 
ATOM      4  H   UNL     1      51.197  52.939  21.113  1.00  0.00    +0.164 HD
ENDROOT
BRANCH   1   5
ATOM      5  C   UNL     1      51.512  55.497  21.327  1.00  0.00    +0.118 C 
ATOM      6  C   UNL     1      51.564  54.586  22.565  1.00  0.00    +0.044 C 
BRANCH   5   7
ATOM      7  C   UNL     1      50.216  56.301  21.157  1.00  0.00    -0.019 A 
ATOM      8  C   UNL     1      50.012  57.468  21.923  1.00  0.00    +0.006 A 
ATOM      9  C   UNL     1      49.193  55.911  20.278  1.00  0.00    +0.006 A 
ATOM     10  C   UNL     1      48.845  58.224  21.796  1.00  0.00    +0.000 A 
ATOM     11  C   UNL     1      48.024  56.669  20.152  1.00  0.00    +0.000 A 
ATOM     12  C   UNL     1      47.851  57.824  20.908  1.00  0.00    +0.000 A 
ENDBRANCH   5   7
BRANCH   5  13
ATOM     13  N   UNL     1      52.654  56.433  21.482  1.00  0.00    -0.314 NA
ATOM     14  H   UNL     1      53.514  55.878  21.437  1.00  0.00    +0.120 HD
ATOM     15  H   UNL     1      52.676  57.067  20.686  1.00  0.00    +0.120 HD
ENDBRANCH   5  13
ENDBRANCH   1   5
BRANCH   3  16
ATOM     16  C   UNL     1      51.695  52.225  19.179  1.00  0.00    +0.132 C 
ATOM     17  C   UNL     1      50.398  52.159  18.363  1.00  0.00    +0.047 C 
ATOM     18  C   UNL     1      52.909  52.478  18.277  1.00  0.00    +0.047 C 
BRANCH  16  19
ATOM     19  C   UNL     1      51.887  50.830  19.833  1.00  0.00    +0.330 C 
ATOM     20  O   UNL     1      52.918  50.451  20.376  1.00  0.00    -0.249 OA
BRANCH  19  21
ATOM     21  O   UNL     1      50.758  50.063  19.708  1.00  0.00    -0.467 OA
ATOM     22  C   UNL     1      50.786  48.862  20.482  1.00  0.00    +0.282 C 
ENDBRANCH  19  21
ENDBRANCH  16  19
ENDBRANCH   3  16
TORSDOF 6
ENDMDL
MODEL 2
REMARK VINA RESULT:    -7.341      2.030      6.136
REMARK INTER + INTRA:          -9.665
REMARK INTER:                  -9.476
REMARK INTRA:                  -0.189
REMARK UNBOUND:                 0.037
REMARK SMILES COC(=O)C(C)(C)NC(=O)[C@@](C)(N)c1ccccc1
REMARK SMILES IDX 9 1 10 2 8 3 11 5 12 6 14 7 15 8 19 9 16 10 18 11 17 12
REMARK SMILES IDX 13 13 5 16 6 17 7 18 3 19 4 20 2 21 1 22
REMARK H PARENT 8 4 13 14 13 15
ROOT
ATOM      1  C   UNL     1      51.466  52.853  21.090  1.00  0.00    +0.245 C 
ATOM      2  O   UNL     1      50.639  52.650  21.979  1.00  0.00    -0.273 OA
ATOM      3  N   UNL     1      51.941  54.112  20.790  1.00  0.00    -0.339 N 
ATOM      4  H   UNL     1      52.467  54.231  19.929  1.00  0.00    +0.164 HD
ENDROOT
BRANCH   1   5
ATOM      5  C   UNL     1      52.009  51.697  20.162  1.00  0.00    +0.118 C 
ATOM      6  C   UNL     1      53.009  52.305  19.163  1.00  0.00    +0.044 C 
BRANCH   5   7
ATOM      7  C   UNL     1      50.831  50.941  19.533  1.00  0.00    -0.019 A 
ATOM      8  C   UNL     1      50.027  51.579  18.566  1.00  0.00    +0.006 A 
ATOM      9  C   UNL     1      50.493  49.627  19.899  1.00  0.00    +0.006 A 
ATOM     10  C   UNL     1      48.946  50.922  17.974  1.00  0.00    +0.000 A 
ATOM     11  C   UNL     1      49.410  48.971  19.305  1.00  0.00    +0.000 A 
ATOM     12  C   UNL     1      48.640  49.616  18.343  1.00  0.00    +0.000 A 
ENDBRANCH   5   7
BRANCH   5  13
ATOM     13  N   UNL     1      52.807  50.760  20.992  1.00  0.00    -0.314 NA
ATOM     14  H   UNL     1      52.371  49.837  20.919  1.00  0.00    +0.120 HD
ATOM     15  H   UNL     1      53.740  50.674  20.593  1.00  0.00    +0.120 HD
ENDBRANCH   5  13
ENDBRANCH   1   5
BRANCH   3  16
ATOM     16  C   UNL     1      51.524  55.364  21.454  1.00  0.00    +0.132 C 
ATOM     17  C   UNL     1      50.096  55.749  21.047  1.00  0.00    +0.047 C 
ATOM     18  C   UNL     1      51.657  55.246  22.977  1.00  0.00    +0.047 C 
BRANCH  16  19
ATOM     19  C   UNL     1      52.450  56.524  20.998  1.00  0.00    +0.330 C 
ATOM     20  O   UNL     1      53.511  56.377  20.403  1.00  0.00    -0.249 OA
BRANCH  19  21
ATOM     21  O   UNL     1      51.937  57.741  21.363  1.00  0.00    -0.467 OA
ATOM     22  C   UNL     1      52.928  58.688  21.770  1.00  0.00    +0.282 C 
ENDBRANCH  19  21
ENDBRANCH  16  19
ENDBRANCH   3  16
TORSDOF 6
ENDMDL
MODEL 3
REMARK VINA RESULT:    -5.675      8.396     11.731
REMARK INTER + INTRA:          -7.462
REMARK INTER:                  -7.280
REMARK INTRA:                  -0.182
REMARK UNBOUND:                 0.037
REMARK SMILES COC(=O)C(C)(C)NC(=O)[C@@](C)(N)c1ccccc1
REMARK SMILES IDX 9 1 10 2 8 3 11 5 12 6 14 7 15 8 19 9 16 10 18 11 17 12
REMARK SMILES IDX 13 13 5 16 6 17 7 18 3 19 4 20 2 21 1 22
REMARK H PARENT 8 4 13 14 13 15
ROOT
ATOM      1  C   UNL     1      46.471  63.047  17.492  1.00  0.00    +0.245 C 
ATOM      2  O   UNL     1      47.647  63.283  17.214  1.00  0.00    -0.273 OA
ATOM      3  N   UNL     1      45.434  63.859  17.086  1.00  0.00    -0.339 N 
ATOM      4  H   UNL     1      44.521  63.715  17.507  1.00  0.00    +0.164 HD
ENDROOT
BRANCH   1   5
ATOM      5  C   UNL     1      46.047  61.828  18.401  1.00  0.00    +0.118 C 
ATOM      6  C   UNL     1      46.794  61.938  19.741  1.00  0.00    +0.044 C 
BRANCH   5   7
ATOM      7  C   UNL     1      46.259  60.513  17.637  1.00  0.00    -0.019 A 
ATOM      8  C   UNL     1      45.462  60.223  16.510  1.00  0.00    +0.006 A 
ATOM      9  C   UNL     1      47.210  59.556  18.027  1.00  0.00    +0.006 A 
ATOM     10  C   UNL     1      45.626  59.037  15.792  1.00  0.00    +0.000 A 
ATOM     11  C   UNL     1      47.372  58.368  17.308  1.00  0.00    +0.000 A 
ATOM     12  C   UNL     1      46.584  58.110  16.191  1.00  0.00    +0.000 A 
ENDBRANCH   5   7
BRANCH   5  13
ATOM     13  N   UNL     1      44.609  61.971  18.742  1.00  0.00    -0.314 NA
ATOM     14  H   UNL     1      44.349  62.947  18.573  1.00  0.00    +0.120 HD
ATOM     15  H   UNL     1      44.057  61.408  18.100  1.00  0.00    +0.120 HD
ENDBRANCH   5  13
ENDBRANCH   1   5
BRANCH   3  16
ATOM     16  C   UNL     1      45.578  65.103  16.302  1.00  0.00    +0.132 C 
ATOM     17  C   UNL     1      44.216  65.775  16.090  1.00  0.00    +0.047 C 
ATOM     18  C   UNL     1      46.572  66.060  16.972  1.00  0.00    +0.047 C 
BRANCH  16  19
ATOM     19  C   UNL     1      46.138  64.765  14.894  1.00  0.00    +0.330 C 
ATOM     20  O   UNL     1      47.220  65.147  14.464  1.00  0.00    -0.249 OA
BRANCH  19  21
ATOM     21  O   UNL     1      45.255  63.997  14.180  1.00  0.00    -0.467 OA
ATOM     22  C   UNL     1      45.219  64.304  12.784  1.00  0.00    +0.282 C 
ENDBRANCH  19  21
ENDBRANCH  16  19
ENDBRANCH   3  16
TORSDOF 6
ENDMDL
MODEL 4
REMARK VINA RESULT:    -5.503      7.793     10.966
REMARK INTER + INTRA:          -7.236
REMARK INTER:                  -7.239
REMARK INTRA:                   0.003
REMARK UNBOUND:                 0.037
REMARK SMILES COC(=O)C(C)(C)NC(=O)[C@@](C)(N)c1ccccc1
REMARK SMILES IDX 9 1 10 2 8 3 11 5 12 6 14 7 15 8 19 9 16 10 18 11 17 12
REMARK SMILES IDX 13 13 5 16 6 17 7 18 3 19 4 20 2 21 1 22
REMARK H PARENT 8 4 13 14 13 15
ROOT
ATOM      1  C   UNL     1      45.176  60.777  17.175  1.00  0.00    +0.245 C 
ATOM      2  O   UNL     1      44.682  60.534  18.276  1.00  0.00    -0.273 OA
ATOM      3  N   UNL     1      45.940  61.899  16.934  1.00  0.00    -0.339 N 
ATOM      4  H   UNL     1      46.152  62.135  15.969  1.00  0.00    +0.164 HD
ENDROOT
BRANCH   1   5
ATOM      5  C   UNL     1      44.923  59.860  15.915  1.00  0.00    +0.118 C 
ATOM      6  C   UNL     1      43.436  59.465  15.894  1.00  0.00    +0.044 C 
BRANCH   5   7
ATOM      7  C   UNL     1      45.914  58.688  15.920  1.00  0.00    -0.019 A 
ATOM      8  C   UNL     1      45.804  57.676  14.944  1.00  0.00    +0.006 A 
ATOM      9  C   UNL     1      46.930  58.559  16.882  1.00  0.00    +0.006 A 
ATOM     10  C   UNL     1      46.687  56.594  14.918  1.00  0.00    +0.000 A 
ATOM     11  C   UNL     1      47.813  57.475  16.855  1.00  0.00    +0.000 A 
ATOM     12  C   UNL     1      47.693  56.496  15.874  1.00  0.00    +0.000 A 
ENDBRANCH   5   7
BRANCH   5  13
ATOM     13  N   UNL     1      45.129  60.673  14.690  1.00  0.00    -0.314 NA
ATOM     14  H   UNL     1      44.834  60.105  13.892  1.00  0.00    +0.120 HD
ATOM     15  H   UNL     1      44.508  61.479  14.718  1.00  0.00    +0.120 HD
ENDBRANCH   5  13
ENDBRANCH   1   5
BRANCH   3  16
ATOM     16  C   UNL     1      46.249  62.952  17.923  1.00  0.00    +0.132 C 
ATOM     17  C   UNL     1      46.703  62.336  19.253  1.00  0.00    +0.047 C 
ATOM     18  C   UNL     1      47.297  63.928  17.375  1.00  0.00    +0.047 C 
BRANCH  16  19
ATOM     19  C   UNL     1      44.965  63.773  18.223  1.00  0.00    +0.330 C 
ATOM     20  O   UNL     1      44.412  64.517  17.423  1.00  0.00    -0.249 OA
BRANCH  19  21
ATOM     21  O   UNL     1      44.538  63.574  19.510  1.00  0.00    -0.467 OA
ATOM     22  C   UNL     1      43.151  63.243  19.615  1.00  0.00    +0.282 C 
ENDBRANCH  19  21
ENDBRANCH  16  19
ENDBRANCH   3  16
TORSDOF 6
ENDMDL
MODEL 5
REMARK VINA RESULT:    -5.434      9.686     12.144
REMARK INTER + INTRA:          -7.145
REMARK INTER:                  -6.876
REMARK INTRA:                  -0.268
REMARK UNBOUND:                 0.037
REMARK SMILES COC(=O)C(C)(C)NC(=O)[C@@](C)(N)c1ccccc1
REMARK SMILES IDX 9 1 10 2 8 3 11 5 12 6 14 7 15 8 19 9 16 10 18 11 17 12
REMARK SMILES IDX 13 13 5 16 6 17 7 18 3 19 4 20 2 21 1 22
REMARK H PARENT 8 4 13 14 13 15
ROOT
ATOM      1  C   UNL     1      46.016  63.324  17.856  1.00  0.00    +0.245 C 
ATOM      2  O   UNL     1      47.079  63.134  17.266  1.00  0.00    -0.273 OA
ATOM      3  N   UNL     1      45.205  64.409  17.597  1.00  0.00    -0.339 N 
ATOM      4  H   UNL     1      44.450  64.607  18.246  1.00  0.00    +0.164 HD
ENDROOT
BRANCH   1   5
ATOM      5  C   UNL     1      45.514  62.380  19.017  1.00  0.00    +0.118 C 
ATOM      6  C   UNL     1      46.701  61.523  19.493  1.00  0.00    +0.044 C 
BRANCH   5   7
ATOM      7  C   UNL     1      44.282  61.593  18.550  1.00  0.00    -0.019 A 
ATOM      8  C   UNL     1      44.273  61.004  17.268  1.00  0.00    +0.006 A 
ATOM      9  C   UNL     1      43.131  61.448  19.342  1.00  0.00    +0.006 A 
ATOM     10  C   UNL     1      43.169  60.282  16.810  1.00  0.00    +0.000 A 
ATOM     11  C   UNL     1      42.026  60.726  18.881  1.00  0.00    +0.000 A 
ATOM     12  C   UNL     1      42.046  60.141  17.619  1.00  0.00    +0.000 A 
ENDBRANCH   5   7
BRANCH   5  13
ATOM     13  N   UNL     1      45.147  63.221  20.184  1.00  0.00    -0.314 NA
ATOM     14  H   UNL     1      45.706  62.902  20.980  1.00  0.00    +0.120 HD
ATOM     15  H   UNL     1      45.424  64.183  20.002  1.00  0.00    +0.120 HD
ENDBRANCH   5  13
ENDBRANCH   1   5
BRANCH   3  16
ATOM     16  C   UNL     1      45.495  65.478  16.620  1.00  0.00    +0.132 C 
ATOM     17  C   UNL     1      44.364  66.514  16.593  1.00  0.00    +0.047 C 
ATOM     18  C   UNL     1      46.847  66.139  16.915  1.00  0.00    +0.047 C 
BRANCH  16  19
ATOM     19  C   UNL     1      45.580  64.868  15.195  1.00  0.00    +0.330 C 
ATOM     20  O   UNL     1      46.561  64.937  14.465  1.00  0.00    -0.249 OA
BRANCH  19  21
ATOM     21  O   UNL     1      44.404  64.256  14.846  1.00  0.00    -0.467 OA
ATOM     22  C   UNL     1      44.579  63.018  14.153  1.00  0.00    +0.282 C 
ENDBRANCH  19  21
ENDBRANCH  16  19
ENDBRANCH   3  16
TORSDOF 6
ENDMDL
