MODEL 1
REMARK VINA RESULT:    -6.357      0.000      0.000
REMARK INTER + INTRA:          -9.169
REMARK INTER:                  -8.587
REMARK INTRA:                  -0.583
REMARK UNBOUND:                -0.583
REMARK SMILES COC[C@@H](C)CNc1ccc(Cl)cc1C(N)=S
REMARK SMILES IDX 6 1 4 2 5 3 3 4 2 5 1 6 7 7 8 9 9 10 14 11 10 12 13 13 11 14
REMARK SMILES IDX 12 15 15 16 17 17 16 18
REMARK H PARENT 7 8 16 19 16 20
ROOT
ATOM      1  C   UNL     1      51.853  53.494  19.057  1.00  0.00    +0.118 C 
ENDROOT
BRANCH   1   2
ATOM      2  C   UNL     1      51.473  52.008  19.177  1.00  0.00    +0.031 C 
ATOM      3  C   UNL     1      50.091  51.706  18.596  1.00  0.00    +0.012 C 
BRANCH   2   4
ATOM      4  C   UNL     1      51.588  51.457  20.601  1.00  0.00    +0.164 C 
BRANCH   4   5
ATOM      5  O   UNL     1      52.818  50.744  20.736  1.00  0.00    -0.384 OA
ATOM      6  C   UNL     1      52.919  49.697  19.778  1.00  0.00    +0.194 C 
ENDBRANCH   4   5
ENDBRANCH   2   4
ENDBRANCH   1   2
BRANCH   1   7
ATOM      7  N   UNL     1      51.549  54.289  20.244  1.00  0.00    -0.384 N 
ATOM      8  H   UNL     1      52.370  54.521  20.805  1.00  0.00    +0.160 HD
BRANCH   7   9
ATOM      9  C   UNL     1      50.522  55.225  20.346  1.00  0.00    +0.044 A 
ATOM     10  C   UNL     1      49.307  55.082  19.658  1.00  0.00    +0.028 A 
ATOM     11  C   UNL     1      50.602  56.298  21.268  1.00  0.00    +0.033 A 
ATOM     12  C   UNL     1      48.250  55.986  19.825  1.00  0.00    +0.022 A 
ATOM     13  C   UNL     1      49.543  57.204  21.445  1.00  0.00    +0.033 A 
ATOM     14  C   UNL     1      48.374  57.045  20.714  1.00  0.00    +0.041 A 
ATOM     15 Cl   UNL     1      47.074  58.151  20.920  1.00  0.00    -0.084 Cl
BRANCH  11  16
ATOM     16  C   UNL     1      51.793  56.522  22.121  1.00  0.00    +0.106 C 
ATOM     17  S   UNL     1      53.077  57.509  21.723  1.00  0.00    -0.060 S 
ATOM     18  N   UNL     1      51.785  55.869  23.327  1.00  0.00    -0.389 N 
ATOM     19  H   UNL     1      51.082  55.181  23.566  1.00  0.00    +0.157 HD
ATOM     20  H   UNL     1      52.599  55.937  23.927  1.00  0.00    +0.157 HD
ENDBRANCH  11  16
ENDBRANCH   7   9
ENDBRANCH   1   7
TORSDOF 6
ENDMDL
MODEL 2
REMARK VINA RESULT:    -6.347      3.945      5.908
REMARK INTER + INTRA:          -9.156
REMARK INTER:                  -8.567
REMARK INTRA:                  -0.589
REMARK UNBOUND:                -0.583
REMARK SMILES COC[C@@H](C)CNc1ccc(Cl)cc1C(N)=S
REMARK SMILES IDX 6 1 4 2 5 3 3 4 2 5 1 6 7 7 8 9 9 10 14 11 10 12 13 13 11 14
REMARK SMILES IDX 12 15 15 16 17 17 16 18
REMARK H PARENT 7 8 16 19 16 20
ROOT
ATOM      1  C   UNL     1      51.350  53.524  19.065  1.00  0.00    +0.118 C 
ENDROOT
BRANCH   1   2
ATOM      2  C   UNL     1      50.397  53.598  20.272  1.00  0.00    +0.031 C 
ATOM      3  C   UNL     1      49.318  54.667  20.102  1.00  0.00    +0.012 C 
BRANCH   2   4
ATOM      4  C   UNL     1      51.116  53.768  21.613  1.00  0.00    +0.164 C 
BRANCH   4   5
ATOM      5  O   UNL     1      52.033  54.859  21.524  1.00  0.00    -0.384 OA
ATOM      6  C   UNL     1      51.762  55.847  22.511  1.00  0.00    +0.194 C 
ENDBRANCH   4   5
ENDBRANCH   2   4
ENDBRANCH   1   2
BRANCH   1   7
ATOM      7  N   UNL     1      51.238  52.293  18.287  1.00  0.00    -0.384 N 
ATOM      8  H   UNL     1      52.136  51.853  18.082  1.00  0.00    +0.160 HD
BRANCH   7   9
ATOM      9  C   UNL     1      50.178  51.392  18.353  1.00  0.00    +0.044 A 
ATOM     10  C   UNL     1      49.079  51.462  17.483  1.00  0.00    +0.028 A 
ATOM     11  C   UNL     1      50.230  50.267  19.214  1.00  0.00    +0.033 A 
ATOM     12  C   UNL     1      48.054  50.506  17.504  1.00  0.00    +0.022 A 
ATOM     13  C   UNL     1      49.208  49.302  19.235  1.00  0.00    +0.033 A 
ATOM     14  C   UNL     1      48.121  49.434  18.383  1.00  0.00    +0.041 A 
ATOM     15 Cl   UNL     1      46.865  48.262  18.404  1.00  0.00    -0.084 Cl
BRANCH  11  16
ATOM     16  C   UNL     1      51.369  50.021  20.128  1.00  0.00    +0.106 C 
ATOM     17  S   UNL     1      52.918  49.638  19.640  1.00  0.00    -0.060 S 
ATOM     18  N   UNL     1      51.092  50.154  21.465  1.00  0.00    -0.389 N 
ATOM     19  H   UNL     1      50.149  50.282  21.812  1.00  0.00    +0.157 HD
ATOM     20  H   UNL     1      51.816  49.942  22.140  1.00  0.00    +0.157 HD
ENDBRANCH  11  16
ENDBRANCH   7   9
ENDBRANCH   1   7
TORSDOF 6
ENDMDL
MODEL 3
REMARK VINA RESULT:    -6.197      3.888      5.870
REMARK INTER + INTRA:          -8.954
REMARK INTER:                  -8.411
REMARK INTRA:                  -0.543
REMARK UNBOUND:                -0.583
REMARK SMILES COC[C@@H](C)CNc1ccc(Cl)cc1C(N)=S
REMARK SMILES IDX 6 1 4 2 5 3 3 4 2 5 1 6 7 7 8 9 9 10 14 11 10 12 13 13 11 14
REMARK SMILES IDX 12 15 15 16 17 17 16 18
REMARK H PARENT 7 8 16 19 16 20
ROOT
ATOM      1  C   UNL     1      51.070  54.797  19.699  1.00  0.00    +0.118 C 
ENDROOT
BRANCH   1   2
ATOM      2  C   UNL     1      51.786  54.665  21.055  1.00  0.00    +0.031 C 
ATOM      3  C   UNL     1      51.439  53.363  21.777  1.00  0.00    +0.012 C 
BRANCH   2   4
ATOM      4  C   UNL     1      51.574  55.866  21.981  1.00  0.00    +0.164 C 
BRANCH   4   5
ATOM      5  O   UNL     1      52.840  56.432  22.321  1.00  0.00    -0.384 OA
ATOM      6  C   UNL     1      53.020  57.704  21.711  1.00  0.00    +0.194 C 
ENDBRANCH   4   5
ENDBRANCH   2   4
ENDBRANCH   1   2
BRANCH   1   7
ATOM      7  N   UNL     1      51.293  53.674  18.792  1.00  0.00    -0.384 N 
ATOM      8  H   UNL     1      52.203  53.226  18.907  1.00  0.00    +0.160 HD
BRANCH   7   9
ATOM      9  C   UNL     1      50.305  52.814  18.316  1.00  0.00    +0.044 A 
ATOM     10  C   UNL     1      49.015  53.262  17.988  1.00  0.00    +0.028 A 
ATOM     11  C   UNL     1      50.602  51.464  18.002  1.00  0.00    +0.033 A 
ATOM     12  C   UNL     1      48.052  52.408  17.437  1.00  0.00    +0.022 A 
ATOM     13  C   UNL     1      49.641  50.605  17.444  1.00  0.00    +0.033 A 
ATOM     14  C   UNL     1      48.367  51.082  17.172  1.00  0.00    +0.041 A 
ATOM     15 Cl   UNL     1      47.184  50.037  16.493  1.00  0.00    -0.084 Cl
BRANCH  11  16
ATOM     16  C   UNL     1      51.946  50.879  18.218  1.00  0.00    +0.106 C 
ATOM     17  S   UNL     1      52.478  50.220  19.656  1.00  0.00    -0.060 S 
ATOM     18  N   UNL     1      52.771  50.876  17.123  1.00  0.00    -0.389 N 
ATOM     19  H   UNL     1      52.532  51.356  16.264  1.00  0.00    +0.157 HD
ATOM     20  H   UNL     1      53.722  50.542  17.225  1.00  0.00    +0.157 HD
ENDBRANCH  11  16
ENDBRANCH   7   9
ENDBRANCH   1   7
TORSDOF 6
ENDMDL
MODEL 4
REMARK VINA RESULT:    -6.155      5.482      7.189
REMARK INTER + INTRA:          -8.897
REMARK INTER:                  -8.128
REMARK INTRA:                  -0.768
REMARK UNBOUND:                -0.583
REMARK SMILES COC[C@@H](C)CNc1ccc(Cl)cc1C(N)=S
REMARK SMILES IDX 6 1 4 2 5 3 3 4 2 5 1 6 7 7 8 9 9 10 14 11 10 12 13 13 11 14
REMARK SMILES IDX 12 15 15 16 17 17 16 18
REMARK H PARENT 7 8 16 19 16 20
ROOT
ATOM      1  C   UNL     1      47.869  47.692  17.705  1.00  0.00    +0.118 C 
ENDROOT
BRANCH   1   2
ATOM      2  C   UNL     1      46.642  48.529  18.109  1.00  0.00    +0.031 C 
ATOM      3  C   UNL     1      45.575  47.699  18.824  1.00  0.00    +0.012 C 
BRANCH   2   4
ATOM      4  C   UNL     1      46.023  49.313  16.948  1.00  0.00    +0.164 C 
BRANCH   4   5
ATOM      5  O   UNL     1      46.675  48.951  15.730  1.00  0.00    -0.384 OA
ATOM      6  C   UNL     1      45.793  48.255  14.857  1.00  0.00    +0.194 C 
ENDBRANCH   4   5
ENDBRANCH   2   4
ENDBRANCH   1   2
BRANCH   1   7
ATOM      7  N   UNL     1      49.105  48.460  17.583  1.00  0.00    -0.384 N 
ATOM      8  H   UNL     1      49.329  48.731  16.624  1.00  0.00    +0.160 HD
BRANCH   7   9
ATOM      9  C   UNL     1      49.605  49.340  18.540  1.00  0.00    +0.044 A 
ATOM     10  C   UNL     1      50.108  48.899  19.774  1.00  0.00    +0.028 A 
ATOM     11  C   UNL     1      49.763  50.719  18.251  1.00  0.00    +0.033 A 
ATOM     12  C   UNL     1      50.680  49.781  20.700  1.00  0.00    +0.022 A 
ATOM     13  C   UNL     1      50.342  51.607  19.174  1.00  0.00    +0.033 A 
ATOM     14  C   UNL     1      50.790  51.132  20.398  1.00  0.00    +0.041 A 
ATOM     15 Cl   UNL     1      51.495  52.211  21.534  1.00  0.00    -0.084 Cl
BRANCH  11  16
ATOM     16  C   UNL     1      49.352  51.309  16.956  1.00  0.00    +0.106 C 
ATOM     17  S   UNL     1      48.121  52.418  16.762  1.00  0.00    -0.060 S 
ATOM     18  N   UNL     1      50.081  50.904  15.867  1.00  0.00    -0.389 N 
ATOM     19  H   UNL     1      50.764  50.159  15.919  1.00  0.00    +0.157 HD
ATOM     20  H   UNL     1      49.809  51.229  14.946  1.00  0.00    +0.157 HD
ENDBRANCH  11  16
ENDBRANCH   7   9
ENDBRANCH   1   7
TORSDOF 6
ENDMDL
MODEL 5
REMARK VINA RESULT:    -6.069      3.468      5.518
REMARK INTER + INTRA:          -8.780
REMARK INTER:                  -7.753
REMARK INTRA:                  -1.027
REMARK UNBOUND:                -0.583
REMARK SMILES COC[C@@H](C)CNc1ccc(Cl)cc1C(N)=S
REMARK SMILES IDX 6 1 4 2 5 3 3 4 2 5 1 6 7 7 8 9 9 10 14 11 10 12 13 13 11 14
REMARK SMILES IDX 12 15 15 16 17 17 16 18
REMARK H PARENT 7 8 16 19 16 20
ROOT
ATOM      1  C   UNL     1      48.652  55.806  20.003  1.00  0.00    +0.118 C 
ENDROOT
BRANCH   1   2
ATOM      2  C   UNL     1      49.400  56.696  21.012  1.00  0.00    +0.031 C 
ATOM      3  C   UNL     1      48.613  57.955  21.380  1.00  0.00    +0.012 C 
BRANCH   2   4
ATOM      4  C   UNL     1      50.821  57.061  20.575  1.00  0.00    +0.164 C 
BRANCH   4   5
ATOM      5  O   UNL     1      51.730  56.059  21.036  1.00  0.00    -0.384 OA
ATOM      6  C   UNL     1      51.667  55.912  22.450  1.00  0.00    +0.194 C 
ENDBRANCH   4   5
ENDBRANCH   2   4
ENDBRANCH   1   2
BRANCH   1   7
ATOM      7  N   UNL     1      49.499  55.249  18.952  1.00  0.00    -0.384 N 
ATOM      8  H   UNL     1      50.481  55.518  19.028  1.00  0.00    +0.160 HD
BRANCH   7   9
ATOM      9  C   UNL     1      49.307  54.017  18.330  1.00  0.00    +0.044 A 
ATOM     10  C   UNL     1      48.408  53.847  17.265  1.00  0.00    +0.028 A 
ATOM     11  C   UNL     1      50.121  52.903  18.652  1.00  0.00    +0.033 A 
ATOM     12  C   UNL     1      48.277  52.625  16.594  1.00  0.00    +0.022 A 
ATOM     13  C   UNL     1      49.998  51.676  17.978  1.00  0.00    +0.033 A 
ATOM     14  C   UNL     1      49.068  51.543  16.956  1.00  0.00    +0.041 A 
ATOM     15 Cl   UNL     1      48.907  50.046  16.129  1.00  0.00    -0.084 Cl
BRANCH  11  16
ATOM     16  C   UNL     1      51.168  52.963  19.699  1.00  0.00    +0.106 C 
ATOM     17  S   UNL     1      50.994  52.385  21.254  1.00  0.00    -0.060 S 
ATOM     18  N   UNL     1      52.359  53.520  19.309  1.00  0.00    -0.389 N 
ATOM     19  H   UNL     1      52.476  53.977  18.413  1.00  0.00    +0.157 HD
ATOM     20  H   UNL     1      53.093  53.641  19.998  1.00  0.00    +0.157 HD
ENDBRANCH  11  16
ENDBRANCH   7   9
ENDBRANCH   1   7
TORSDOF 6
ENDMDL
