MODEL 1
REMARK VINA RESULT:    -6.921      0.000      0.000
REMARK INTER + INTRA:         -10.798
REMARK INTER:                  -9.956
REMARK INTRA:                  -0.843
REMARK UNBOUND:                -0.843
REMARK SMILES C=COCCCNC(=O)[C@@](C)(N)c1ccccc1
REMARK SMILES IDX 6 1 7 2 8 3 9 4 10 6 11 7 13 8 14 9 18 10 15 11 17 12 16 13
REMARK SMILES IDX 12 14 5 17 4 18 3 19 2 20 1 21
REMARK H PARENT 7 5 12 15 12 16
ROOT
ATOM      1  C   UNL     1      52.640  52.995  18.475  1.00  0.00    +0.119 C 
ENDROOT
BRANCH   1   2
ATOM      2  N   UNL     1      52.344  53.637  19.741  1.00  0.00    -0.354 N 
ATOM      3  C   UNL     1      52.030  54.985  19.790  1.00  0.00    +0.244 C 
ATOM      4  O   UNL     1      52.131  55.728  18.812  1.00  0.00    -0.273 OA
ATOM      5  H   UNL     1      51.925  53.059  20.463  1.00  0.00    +0.163 HD
BRANCH   3   6
ATOM      6  C   UNL     1      51.561  55.512  21.198  1.00  0.00    +0.118 C 
ATOM      7  C   UNL     1      51.501  54.289  22.133  1.00  0.00    +0.044 C 
BRANCH   6   8
ATOM      8  C   UNL     1      50.247  56.299  21.083  1.00  0.00    -0.019 A 
ATOM      9  C   UNL     1      49.181  55.875  20.273  1.00  0.00    +0.006 A 
ATOM     10  C   UNL     1      50.069  57.481  21.832  1.00  0.00    +0.006 A 
ATOM     11  C   UNL     1      47.999  56.619  20.187  1.00  0.00    +0.000 A 
ATOM     12  C   UNL     1      48.888  58.223  21.744  1.00  0.00    +0.000 A 
ATOM     13  C   UNL     1      47.856  57.794  20.918  1.00  0.00    +0.000 A 
ENDBRANCH   6   8
BRANCH   6  14
ATOM     14  N   UNL     1      52.613  56.409  21.743  1.00  0.00    -0.314 NA
ATOM     15  H   UNL     1      53.454  55.847  21.880  1.00  0.00    +0.120 HD
ATOM     16  H   UNL     1      52.336  56.653  22.697  1.00  0.00    +0.120 HD
ENDBRANCH   6  14
ENDBRANCH   3   6
ENDBRANCH   1   2
BRANCH   1  17
ATOM     17  C   UNL     1      52.137  51.556  18.460  1.00  0.00    +0.063 C 
BRANCH  17  18
ATOM     18  C   UNL     1      50.676  51.472  18.029  1.00  0.00    +0.230 C 
BRANCH  18  19
ATOM     19  O   UNL     1      50.139  52.793  17.966  1.00  0.00    -0.502 OA
BRANCH  19  20
ATOM     20  C   UNL     1      48.792  52.914  17.787  1.00  0.00    +0.179 C 
ATOM     21  C   UNL     1      48.101  53.060  16.652  1.00  0.00    +0.050 C 
ENDBRANCH  19  20
ENDBRANCH  18  19
ENDBRANCH  17  18
ENDBRANCH   1  17
TORSDOF 8
ENDMDL
MODEL 2
REMARK VINA RESULT:    -6.608      1.655      2.386
REMARK INTER + INTRA:         -10.347
REMARK INTER:                  -9.448
REMARK INTRA:                  -0.899
REMARK UNBOUND:                -0.843
REMARK SMILES C=COCCCNC(=O)[C@@](C)(N)c1ccccc1
REMARK SMILES IDX 6 1 7 2 8 3 9 4 10 6 11 7 13 8 14 9 18 10 15 11 17 12 16 13
REMARK SMILES IDX 12 14 5 17 4 18 3 19 2 20 1 21
REMARK H PARENT 7 5 12 15 12 16
ROOT
ATOM      1  C   UNL     1      51.713  52.322  21.765  1.00  0.00    +0.119 C 
ENDROOT
BRANCH   1   2
ATOM      2  N   UNL     1      51.541  53.601  21.105  1.00  0.00    -0.354 N 
ATOM      3  C   UNL     1      51.657  54.783  21.819  1.00  0.00    +0.244 C 
ATOM      4  O   UNL     1      51.759  54.811  23.046  1.00  0.00    -0.273 OA
ATOM      5  H   UNL     1      51.795  53.650  20.124  1.00  0.00    +0.163 HD
BRANCH   3   6
ATOM      6  C   UNL     1      51.621  56.095  20.948  1.00  0.00    +0.118 C 
ATOM      7  C   UNL     1      52.696  57.038  21.520  1.00  0.00    +0.044 C 
BRANCH   6   8
ATOM      8  C   UNL     1      50.205  56.688  20.902  1.00  0.00    -0.019 A 
ATOM      9  C   UNL     1      49.810  57.766  21.712  1.00  0.00    +0.006 A 
ATOM     10  C   UNL     1      49.254  56.165  20.001  1.00  0.00    +0.006 A 
ATOM     11  C   UNL     1      48.510  58.278  21.649  1.00  0.00    +0.000 A 
ATOM     12  C   UNL     1      47.955  56.677  19.940  1.00  0.00    +0.000 A 
ATOM     13  C   UNL     1      47.583  57.731  20.767  1.00  0.00    +0.000 A 
ENDBRANCH   6   8
BRANCH   6  14
ATOM     14  N   UNL     1      52.046  55.758  19.565  1.00  0.00    -0.314 NA
ATOM     15  H   UNL     1      51.343  56.135  18.928  1.00  0.00    +0.120 HD
ATOM     16  H   UNL     1      51.942  54.746  19.456  1.00  0.00    +0.120 HD
ENDBRANCH   6  14
ENDBRANCH   3   6
ENDBRANCH   1   2
BRANCH   1  17
ATOM     17  C   UNL     1      51.280  51.175  20.859  1.00  0.00    +0.063 C 
BRANCH  17  18
ATOM     18  C   UNL     1      52.257  50.965  19.707  1.00  0.00    +0.230 C 
BRANCH  18  19
ATOM     19  O   UNL     1      51.813  51.726  18.584  1.00  0.00    -0.502 OA
BRANCH  19  20
ATOM     20  C   UNL     1      50.481  51.694  18.291  1.00  0.00    +0.179 C 
ATOM     21  C   UNL     1      49.644  52.710  18.055  1.00  0.00    +0.050 C 
ENDBRANCH  19  20
ENDBRANCH  18  19
ENDBRANCH  17  18
ENDBRANCH   1  17
TORSDOF 8
ENDMDL
MODEL 3
REMARK VINA RESULT:    -6.346      1.416      2.625
REMARK INTER + INTRA:          -9.971
REMARK INTER:                  -9.545
REMARK INTRA:                  -0.426
REMARK UNBOUND:                -0.843
REMARK SMILES C=COCCCNC(=O)[C@@](C)(N)c1ccccc1
REMARK SMILES IDX 6 1 7 2 8 3 9 4 10 6 11 7 13 8 14 9 18 10 15 11 17 12 16 13
REMARK SMILES IDX 12 14 5 17 4 18 3 19 2 20 1 21
REMARK H PARENT 7 5 12 15 12 16
ROOT
ATOM      1  C   UNL     1      50.112  52.737  18.071  1.00  0.00    +0.119 C 
ENDROOT
BRANCH   1   2
ATOM      2  N   UNL     1      50.263  53.391  19.357  1.00  0.00    -0.354 N 
ATOM      3  C   UNL     1      51.263  54.329  19.556  1.00  0.00    +0.244 C 
ATOM      4  O   UNL     1      52.148  54.545  18.726  1.00  0.00    -0.273 OA
ATOM      5  H   UNL     1      49.423  53.515  19.911  1.00  0.00    +0.163 HD
BRANCH   3   6
ATOM      6  C   UNL     1      51.204  55.084  20.937  1.00  0.00    +0.118 C 
ATOM      7  C   UNL     1      51.132  54.005  22.032  1.00  0.00    +0.044 C 
BRANCH   6   8
ATOM      8  C   UNL     1      50.054  56.103  20.961  1.00  0.00    -0.019 A 
ATOM      9  C   UNL     1      50.076  57.248  21.774  1.00  0.00    +0.006 A 
ATOM     10  C   UNL     1      48.935  55.918  20.122  1.00  0.00    +0.006 A 
ATOM     11  C   UNL     1      49.010  58.153  21.776  1.00  0.00    +0.000 A 
ATOM     12  C   UNL     1      47.870  56.823  20.126  1.00  0.00    +0.000 A 
ATOM     13  C   UNL     1      47.906  57.937  20.956  1.00  0.00    +0.000 A 
ENDBRANCH   6   8
BRANCH   6  14
ATOM     14  N   UNL     1      52.489  55.805  21.137  1.00  0.00    -0.314 NA
ATOM     15  H   UNL     1      52.266  56.786  21.310  1.00  0.00    +0.120 HD
ATOM     16  H   UNL     1      52.964  55.829  20.232  1.00  0.00    +0.120 HD
ENDBRANCH   6  14
ENDBRANCH   3   6
ENDBRANCH   1   2
BRANCH   1  17
ATOM     17  C   UNL     1      49.344  51.427  18.209  1.00  0.00    +0.063 C 
BRANCH  17  18
ATOM     18  C   UNL     1      50.239  50.297  18.707  1.00  0.00    +0.230 C 
BRANCH  18  19
ATOM     19  O   UNL     1      50.608  50.565  20.059  1.00  0.00    -0.502 OA
BRANCH  19  20
ATOM     20  C   UNL     1      51.925  50.425  20.389  1.00  0.00    +0.179 C 
ATOM     21  C   UNL     1      52.885  49.741  19.758  1.00  0.00    +0.050 C 
ENDBRANCH  19  20
ENDBRANCH  18  19
ENDBRANCH  17  18
ENDBRANCH   1  17
TORSDOF 8
ENDMDL
MODEL 4
REMARK VINA RESULT:    -6.264      1.564      1.752
REMARK INTER + INTRA:          -9.853
REMARK INTER:                  -9.299
REMARK INTRA:                  -0.554
REMARK UNBOUND:                -0.843
REMARK SMILES C=COCCCNC(=O)[C@@](C)(N)c1ccccc1
REMARK SMILES IDX 6 1 7 2 8 3 9 4 10 6 11 7 13 8 14 9 18 10 15 11 17 12 16 13
REMARK SMILES IDX 12 14 5 17 4 18 3 19 2 20 1 21
REMARK H PARENT 7 5 12 15 12 16
ROOT
ATOM      1  C   UNL     1      51.397  51.785  19.240  1.00  0.00    +0.119 C 
ENDROOT
BRANCH   1   2
ATOM      2  N   UNL     1      51.432  52.801  20.274  1.00  0.00    -0.354 N 
ATOM      3  C   UNL     1      51.737  54.115  19.960  1.00  0.00    +0.244 C 
ATOM      4  O   UNL     1      52.134  54.457  18.844  1.00  0.00    -0.273 OA
ATOM      5  H   UNL     1      50.817  52.668  21.070  1.00  0.00    +0.163 HD
BRANCH   3   6
ATOM      6  C   UNL     1      51.569  55.141  21.142  1.00  0.00    +0.118 C 
ATOM      7  C   UNL     1      51.658  54.333  22.450  1.00  0.00    +0.044 C 
BRANCH   6   8
ATOM      8  C   UNL     1      50.281  55.964  20.980  1.00  0.00    -0.019 A 
ATOM      9  C   UNL     1      49.228  55.560  20.144  1.00  0.00    +0.006 A 
ATOM     10  C   UNL     1      50.115  57.159  21.710  1.00  0.00    +0.006 A 
ATOM     11  C   UNL     1      48.071  56.335  20.015  1.00  0.00    +0.000 A 
ATOM     12  C   UNL     1      48.959  57.933  21.580  1.00  0.00    +0.000 A 
ATOM     13  C   UNL     1      47.939  57.523  20.728  1.00  0.00    +0.000 A 
ENDBRANCH   6   8
BRANCH   6  14
ATOM     14  N   UNL     1      52.733  56.066  21.137  1.00  0.00    -0.314 NA
ATOM     15  H   UNL     1      52.447  56.922  21.613  1.00  0.00    +0.120 HD
ATOM     16  H   UNL     1      52.870  56.370  20.170  1.00  0.00    +0.120 HD
ENDBRANCH   6  14
ENDBRANCH   3   6
ENDBRANCH   1   2
BRANCH   1  17
ATOM     17  C   UNL     1      49.964  51.362  18.936  1.00  0.00    +0.063 C 
BRANCH  17  18
ATOM     18  C   UNL     1      49.599  51.607  17.476  1.00  0.00    +0.230 C 
BRANCH  18  19
ATOM     19  O   UNL     1      48.688  50.593  17.053  1.00  0.00    -0.502 OA
BRANCH  19  20
ATOM     20  C   UNL     1      48.003  49.921  18.024  1.00  0.00    +0.179 C 
ATOM     21  C   UNL     1      47.719  48.617  18.108  1.00  0.00    +0.050 C 
ENDBRANCH  19  20
ENDBRANCH  18  19
ENDBRANCH  17  18
ENDBRANCH   1  17
TORSDOF 8
ENDMDL
MODEL 5
REMARK VINA RESULT:    -6.223      2.318      5.990
REMARK INTER + INTRA:          -9.795
REMARK INTER:                  -9.364
REMARK INTRA:                  -0.431
REMARK UNBOUND:                -0.843
REMARK SMILES C=COCCCNC(=O)[C@@](C)(N)c1ccccc1
REMARK SMILES IDX 6 1 7 2 8 3 9 4 10 6 11 7 13 8 14 9 18 10 15 11 17 12 16 13
REMARK SMILES IDX 12 14 5 17 4 18 3 19 2 20 1 21
REMARK H PARENT 7 5 12 15 12 16
ROOT
ATOM      1  C   UNL     1      51.850  54.165  21.438  1.00  0.00    +0.119 C 
ENDROOT
BRANCH   1   2
ATOM      2  N   UNL     1      51.392  52.807  21.217  1.00  0.00    -0.354 N 
ATOM      3  C   UNL     1      51.974  52.020  20.237  1.00  0.00    +0.244 C 
ATOM      4  O   UNL     1      52.782  52.463  19.420  1.00  0.00    -0.273 OA
ATOM      5  H   UNL     1      51.020  52.311  22.020  1.00  0.00    +0.163 HD
BRANCH   3   6
ATOM      6  C   UNL     1      51.504  50.516  20.222  1.00  0.00    +0.118 C 
ATOM      7  C   UNL     1      52.723  49.673  19.806  1.00  0.00    +0.044 C 
BRANCH   6   8
ATOM      8  C   UNL     1      50.263  50.335  19.334  1.00  0.00    -0.019 A 
ATOM      9  C   UNL     1      49.831  51.319  18.429  1.00  0.00    +0.006 A 
ATOM     10  C   UNL     1      49.529  49.131  19.391  1.00  0.00    +0.006 A 
ATOM     11  C   UNL     1      48.694  51.123  17.639  1.00  0.00    +0.000 A 
ATOM     12  C   UNL     1      48.392  48.939  18.601  1.00  0.00    +0.000 A 
ATOM     13  C   UNL     1      47.973  49.937  17.729  1.00  0.00    +0.000 A 
ENDBRANCH   6   8
BRANCH   6  14
ATOM     14  N   UNL     1      51.163  50.112  21.611  1.00  0.00    -0.314 NA
ATOM     15  H   UNL     1      51.297  49.103  21.678  1.00  0.00    +0.120 HD
ATOM     16  H   UNL     1      50.152  50.222  21.717  1.00  0.00    +0.120 HD
ENDBRANCH   6  14
ENDBRANCH   3   6
ENDBRANCH   1   2
BRANCH   1  17
ATOM     17  C   UNL     1      50.752  55.173  21.113  1.00  0.00    +0.063 C 
BRANCH  17  18
ATOM     18  C   UNL     1      50.886  56.443  21.946  1.00  0.00    +0.230 C 
BRANCH  18  19
ATOM     19  O   UNL     1      50.312  57.530  21.220  1.00  0.00    -0.502 OA
BRANCH  19  20
ATOM     20  C   UNL     1      49.008  57.839  21.480  1.00  0.00    +0.179 C 
ATOM     21  C   UNL     1      47.915  57.550  20.767  1.00  0.00    +0.050 C 
ENDBRANCH  19  20
ENDBRANCH  18  19
ENDBRANCH  17  18
ENDBRANCH   1  17
TORSDOF 8
ENDMDL
