MODEL 1
REMARK VINA RESULT:    -6.541      0.000      0.000
REMARK INTER + INTRA:         -10.833
REMARK INTER:                  -9.792
REMARK INTRA:                  -1.041
REMARK UNBOUND:                -1.041
REMARK SMILES CC(=O)NCCCCCC(=O)NC1(CO)CCCCC1
REMARK SMILES IDX 8 1 7 2 6 3 5 4 4 5 2 6 3 7 1 8 9 10 10 11 11 12 12 13 13 15
REMARK SMILES IDX 16 16 20 17 17 18 19 19 18 20 14 21 15 22
REMARK H PARENT 4 9 12 14 15 23
ROOT
ATOM      1  C   UNL     1      47.408  52.179  17.228  1.00  0.00    +0.010 C 
ENDROOT
BRANCH   1   2
ATOM      2  C   UNL     1      48.056  50.873  16.768  1.00  0.00    +0.002 C 
BRANCH   2   3
ATOM      3  C   UNL     1      47.678  49.665  17.632  1.00  0.00    +0.021 C 
BRANCH   3   4
ATOM      4  C   UNL     1      48.809  48.665  17.880  1.00  0.00    +0.116 C 
BRANCH   4   5
ATOM      5  N   UNL     1      49.407  48.803  19.192  1.00  0.00    -0.356 N 
ATOM      6  C   UNL     1      50.438  49.679  19.434  1.00  0.00    +0.216 C 
ATOM      7  O   UNL     1      50.946  50.392  18.574  1.00  0.00    -0.275 OA
ATOM      8  C   UNL     1      50.891  49.715  20.868  1.00  0.00    +0.114 C 
ATOM      9  H   UNL     1      48.977  48.312  19.965  1.00  0.00    +0.163 HD
ENDBRANCH   4   5
ENDBRANCH   3   4
ENDBRANCH   2   3
ENDBRANCH   1   2
BRANCH   1  10
ATOM     10  C   UNL     1      48.335  53.371  16.996  1.00  0.00    +0.100 C 
BRANCH  10  11
ATOM     11  C   UNL     1      48.952  53.878  18.288  1.00  0.00    +0.220 C 
ATOM     12  O   UNL     1      48.333  54.539  19.112  1.00  0.00    -0.275 OA
ATOM     13  N   UNL     1      50.269  53.496  18.425  1.00  0.00    -0.348 N 
ATOM     14  H   UNL     1      50.737  53.137  17.598  1.00  0.00    +0.164 HD
BRANCH  13  15
ATOM     15  C   UNL     1      51.183  53.902  19.516  1.00  0.00    +0.063 C 
ATOM     16  C   UNL     1      50.732  53.322  20.879  1.00  0.00    +0.031 C 
ATOM     17  C   UNL     1      51.253  55.447  19.597  1.00  0.00    +0.031 C 
ATOM     18  C   UNL     1      51.567  53.830  22.054  1.00  0.00    +0.002 C 
ATOM     19  C   UNL     1      52.082  55.953  20.778  1.00  0.00    +0.002 C 
ATOM     20  C   UNL     1      51.608  55.354  22.098  1.00  0.00    +0.000 C 
BRANCH  15  21
ATOM     21  C   UNL     1      52.576  53.302  19.148  1.00  0.00    +0.184 C 
BRANCH  21  22
ATOM     22  O   UNL     1      52.552  52.722  17.840  1.00  0.00    -0.394 OA
ATOM     23  H   UNL     1      53.471  52.493  17.609  1.00  0.00    +0.210 HD
ENDBRANCH  21  22
ENDBRANCH  15  21
ENDBRANCH  13  15
ENDBRANCH  10  11
ENDBRANCH   1  10
TORSDOF 9
ENDMDL
MODEL 2
REMARK VINA RESULT:    -6.521      2.569      4.227
REMARK INTER + INTRA:         -10.803
REMARK INTER:                 -10.018
REMARK INTRA:                  -0.784
REMARK UNBOUND:                -1.041
REMARK SMILES CC(=O)NCCCCCC(=O)NC1(CO)CCCCC1
REMARK SMILES IDX 8 1 7 2 6 3 5 4 4 5 2 6 3 7 1 8 9 10 10 11 11 12 12 13 13 15
REMARK SMILES IDX 16 16 20 17 17 18 19 19 18 20 14 21 15 22
REMARK H PARENT 4 9 12 14 15 23
ROOT
ATOM      1  C   UNL     1      51.977  52.019  20.854  1.00  0.00    +0.010 C 
ENDROOT
BRANCH   1   2
ATOM      2  C   UNL     1      51.309  50.648  20.754  1.00  0.00    +0.002 C 
BRANCH   2   3
ATOM      3  C   UNL     1      51.422  50.011  19.364  1.00  0.00    +0.021 C 
BRANCH   3   4
ATOM      4  C   UNL     1      51.651  50.995  18.216  1.00  0.00    +0.116 C 
BRANCH   4   5
ATOM      5  N   UNL     1      50.483  51.163  17.376  1.00  0.00    -0.356 N 
ATOM      6  C   UNL     1      49.592  52.193  17.563  1.00  0.00    +0.216 C 
ATOM      7  O   UNL     1      49.694  53.031  18.454  1.00  0.00    -0.275 OA
ATOM      8  C   UNL     1      48.472  52.228  16.560  1.00  0.00    +0.114 C 
ATOM      9  H   UNL     1      50.387  50.562  16.567  1.00  0.00    +0.163 HD
ENDBRANCH   4   5
ENDBRANCH   3   4
ENDBRANCH   2   3
ENDBRANCH   1   2
BRANCH   1  10
ATOM     10  C   UNL     1      51.580  52.738  22.143  1.00  0.00    +0.100 C 
BRANCH  10  11
ATOM     11  C   UNL     1      51.396  54.231  21.933  1.00  0.00    +0.220 C 
ATOM     12  O   UNL     1      52.048  55.077  22.533  1.00  0.00    -0.275 OA
ATOM     13  N   UNL     1      50.434  54.512  20.989  1.00  0.00    -0.348 N 
ATOM     14  H   UNL     1      49.816  53.754  20.714  1.00  0.00    +0.164 HD
BRANCH  13  15
ATOM     15  C   UNL     1      49.945  55.861  20.620  1.00  0.00    +0.063 C 
ATOM     16  C   UNL     1      49.904  56.804  21.847  1.00  0.00    +0.031 C 
ATOM     17  C   UNL     1      48.536  55.755  19.986  1.00  0.00    +0.031 C 
ATOM     18  C   UNL     1      49.274  58.163  21.539  1.00  0.00    +0.002 C 
ATOM     19  C   UNL     1      47.905  57.115  19.687  1.00  0.00    +0.002 C 
ATOM     20  C   UNL     1      47.889  58.013  20.920  1.00  0.00    +0.000 C 
BRANCH  15  21
ATOM     21  C   UNL     1      50.976  56.418  19.589  1.00  0.00    +0.184 C 
BRANCH  21  22
ATOM     22  O   UNL     1      51.494  55.367  18.766  1.00  0.00    -0.394 OA
ATOM     23  H   UNL     1      50.813  55.157  18.103  1.00  0.00    +0.210 HD
ENDBRANCH  21  22
ENDBRANCH  15  21
ENDBRANCH  13  15
ENDBRANCH  10  11
ENDBRANCH   1  10
TORSDOF 9
ENDMDL
MODEL 3
REMARK VINA RESULT:    -6.280      2.630      5.927
REMARK INTER + INTRA:         -10.441
REMARK INTER:                 -10.367
REMARK INTRA:                  -0.075
REMARK UNBOUND:                -1.041
REMARK SMILES CC(=O)NCCCCCC(=O)NC1(CO)CCCCC1
REMARK SMILES IDX 8 1 7 2 6 3 5 4 4 5 2 6 3 7 1 8 9 10 10 11 11 12 12 13 13 15
REMARK SMILES IDX 16 16 20 17 17 18 19 19 18 20 14 21 15 22
REMARK H PARENT 4 9 12 14 15 23
ROOT
ATOM      1  C   UNL     1      48.826  55.713  20.102  1.00  0.00    +0.010 C 
ENDROOT
BRANCH   1   2
ATOM      2  C   UNL     1      48.152  57.062  20.353  1.00  0.00    +0.002 C 
BRANCH   2   3
ATOM      3  C   UNL     1      48.815  57.881  21.466  1.00  0.00    +0.021 C 
BRANCH   3   4
ATOM      4  C   UNL     1      50.065  57.248  22.081  1.00  0.00    +0.116 C 
BRANCH   4   5
ATOM      5  N   UNL     1      51.282  57.952  21.735  1.00  0.00    -0.356 N 
ATOM      6  C   UNL     1      52.514  57.343  21.780  1.00  0.00    +0.216 C 
ATOM      7  O   UNL     1      52.689  56.180  22.130  1.00  0.00    -0.275 OA
ATOM      8  C   UNL     1      53.652  58.222  21.336  1.00  0.00    +0.114 C 
ATOM      9  H   UNL     1      51.201  58.885  21.351  1.00  0.00    +0.163 HD
ENDBRANCH   4   5
ENDBRANCH   3   4
ENDBRANCH   2   3
ENDBRANCH   1   2
BRANCH   1  10
ATOM     10  C   UNL     1      49.171  55.531  18.624  1.00  0.00    +0.100 C 
BRANCH  10  11
ATOM     11  C   UNL     1      49.372  54.071  18.258  1.00  0.00    +0.220 C 
ATOM     12  O   UNL     1      48.782  53.524  17.335  1.00  0.00    -0.275 OA
ATOM     13  N   UNL     1      50.296  53.450  19.070  1.00  0.00    -0.348 N 
ATOM     14  H   UNL     1      50.563  53.930  19.924  1.00  0.00    +0.164 HD
BRANCH  13  15
ATOM     15  C   UNL     1      50.651  52.012  19.043  1.00  0.00    +0.063 C 
ATOM     16  C   UNL     1      49.471  51.147  18.539  1.00  0.00    +0.031 C 
ATOM     17  C   UNL     1      51.080  51.550  20.457  1.00  0.00    +0.031 C 
ATOM     18  C   UNL     1      49.746  49.645  18.628  1.00  0.00    +0.002 C 
ATOM     19  C   UNL     1      51.347  50.047  20.546  1.00  0.00    +0.002 C 
ATOM     20  C   UNL     1      50.162  49.233  20.036  1.00  0.00    +0.000 C 
BRANCH  15  21
ATOM     21  C   UNL     1      51.836  51.887  18.035  1.00  0.00    +0.184 C 
BRANCH  21  22
ATOM     22  O   UNL     1      52.641  53.070  18.043  1.00  0.00    -0.394 OA
ATOM     23  H   UNL     1      52.779  53.320  18.975  1.00  0.00    +0.210 HD
ENDBRANCH  21  22
ENDBRANCH  15  21
ENDBRANCH  13  15
ENDBRANCH  10  11
ENDBRANCH   1  10
TORSDOF 9
ENDMDL
MODEL 4
REMARK VINA RESULT:    -6.248      2.323      2.998
REMARK INTER + INTRA:         -10.395
REMARK INTER:                 -10.253
REMARK INTRA:                  -0.141
REMARK UNBOUND:                -1.041
REMARK SMILES CC(=O)NCCCCCC(=O)NC1(CO)CCCCC1
REMARK SMILES IDX 8 1 7 2 6 3 5 4 4 5 2 6 3 7 1 8 9 10 10 11 11 12 12 13 13 15
REMARK SMILES IDX 16 16 20 17 17 18 19 19 18 20 14 21 15 22
REMARK H PARENT 4 9 12 14 15 23
ROOT
ATOM      1  C   UNL     1      47.629  50.563  16.754  1.00  0.00    +0.010 C 
ENDROOT
BRANCH   1   2
ATOM      2  C   UNL     1      47.628  49.444  15.713  1.00  0.00    +0.002 C 
BRANCH   2   3
ATOM      3  C   UNL     1      46.395  48.536  15.791  1.00  0.00    +0.021 C 
BRANCH   3   4
ATOM      4  C   UNL     1      46.623  47.188  16.477  1.00  0.00    +0.116 C 
BRANCH   4   5
ATOM      5  N   UNL     1      45.624  46.890  17.482  1.00  0.00    -0.356 N 
ATOM      6  C   UNL     1      45.681  47.422  18.748  1.00  0.00    +0.216 C 
ATOM      7  O   UNL     1      46.577  48.164  19.137  1.00  0.00    -0.275 OA
ATOM      8  C   UNL     1      44.527  47.034  19.632  1.00  0.00    +0.114 C 
ATOM      9  H   UNL     1      44.810  46.358  17.201  1.00  0.00    +0.163 HD
ENDBRANCH   4   5
ENDBRANCH   3   4
ENDBRANCH   2   3
ENDBRANCH   1   2
BRANCH   1  10
ATOM     10  C   UNL     1      48.832  51.488  16.574  1.00  0.00    +0.100 C 
BRANCH  10  11
ATOM     11  C   UNL     1      49.724  51.514  17.803  1.00  0.00    +0.220 C 
ATOM     12  O   UNL     1      49.863  50.554  18.551  1.00  0.00    -0.275 OA
ATOM     13  N   UNL     1      50.362  52.725  17.961  1.00  0.00    -0.348 N 
ATOM     14  H   UNL     1      50.017  53.508  17.414  1.00  0.00    +0.164 HD
BRANCH  13  15
ATOM     15  C   UNL     1      51.223  53.112  19.103  1.00  0.00    +0.063 C 
ATOM     16  C   UNL     1      50.615  52.654  20.451  1.00  0.00    +0.031 C 
ATOM     17  C   UNL     1      51.429  54.647  19.110  1.00  0.00    +0.031 C 
ATOM     18  C   UNL     1      51.400  53.154  21.664  1.00  0.00    +0.002 C 
ATOM     19  C   UNL     1      52.207  55.146  20.328  1.00  0.00    +0.002 C 
ATOM     20  C   UNL     1      51.578  54.669  21.633  1.00  0.00    +0.000 C 
BRANCH  15  21
ATOM     21  C   UNL     1      52.578  52.371  18.882  1.00  0.00    +0.184 C 
BRANCH  21  22
ATOM     22  O   UNL     1      53.118  52.669  17.590  1.00  0.00    -0.394 OA
ATOM     23  H   UNL     1      52.558  52.220  16.932  1.00  0.00    +0.210 HD
ENDBRANCH  21  22
ENDBRANCH  15  21
ENDBRANCH  13  15
ENDBRANCH  10  11
ENDBRANCH   1  10
TORSDOF 9
ENDMDL
MODEL 5
REMARK VINA RESULT:    -6.205      2.478      3.946
REMARK INTER + INTRA:         -10.329
REMARK INTER:                 -10.291
REMARK INTRA:                  -0.038
REMARK UNBOUND:                -1.041
REMARK SMILES CC(=O)NCCCCCC(=O)NC1(CO)CCCCC1
REMARK SMILES IDX 8 1 7 2 6 3 5 4 4 5 2 6 3 7 1 8 9 10 10 11 11 12 12 13 13 15
REMARK SMILES IDX 16 16 20 17 17 18 19 19 18 20 14 21 15 22
REMARK H PARENT 4 9 12 14 15 23
ROOT
ATOM      1  C   UNL     1      52.348  51.462  20.426  1.00  0.00    +0.010 C 
ENDROOT
BRANCH   1   2
ATOM      2  C   UNL     1      52.018  50.020  20.039  1.00  0.00    +0.002 C 
BRANCH   2   3
ATOM      3  C   UNL     1      50.535  49.667  20.197  1.00  0.00    +0.021 C 
BRANCH   3   4
ATOM      4  C   UNL     1      49.694  49.807  18.928  1.00  0.00    +0.116 C 
BRANCH   4   5
ATOM      5  N   UNL     1      49.430  48.538  18.282  1.00  0.00    -0.356 N 
ATOM      6  C   UNL     1      48.624  48.438  17.173  1.00  0.00    +0.216 C 
ATOM      7  O   UNL     1      48.053  49.392  16.654  1.00  0.00    -0.275 OA
ATOM      8  C   UNL     1      48.512  47.044  16.618  1.00  0.00    +0.114 C 
ATOM      9  H   UNL     1      49.940  47.725  18.603  1.00  0.00    +0.163 HD
ENDBRANCH   4   5
ENDBRANCH   3   4
ENDBRANCH   2   3
ENDBRANCH   1   2
BRANCH   1  10
ATOM     10  C   UNL     1      51.323  52.020  21.412  1.00  0.00    +0.100 C 
BRANCH  10  11
ATOM     11  C   UNL     1      51.296  53.538  21.413  1.00  0.00    +0.220 C 
ATOM     12  O   UNL     1      52.042  54.222  22.102  1.00  0.00    -0.275 OA
ATOM     13  N   UNL     1      50.354  54.045  20.544  1.00  0.00    -0.348 N 
ATOM     14  H   UNL     1      49.656  53.400  20.186  1.00  0.00    +0.164 HD
BRANCH  13  15
ATOM     15  C   UNL     1      50.006  55.475  20.376  1.00  0.00    +0.063 C 
ATOM     16  C   UNL     1      50.260  56.276  21.675  1.00  0.00    +0.031 C 
ATOM     17  C   UNL     1      48.522  55.609  19.953  1.00  0.00    +0.031 C 
ATOM     18  C   UNL     1      49.783  57.727  21.590  1.00  0.00    +0.002 C 
ATOM     19  C   UNL     1      48.045  57.060  19.876  1.00  0.00    +0.002 C 
ATOM     20  C   UNL     1      48.319  57.813  21.174  1.00  0.00    +0.000 C 
BRANCH  15  21
ATOM     21  C   UNL     1      50.952  56.013  19.258  1.00  0.00    +0.184 C 
BRANCH  21  22
ATOM     22  O   UNL     1      52.247  56.316  19.786  1.00  0.00    -0.394 OA
ATOM     23  H   UNL     1      52.478  57.215  19.488  1.00  0.00    +0.210 HD
ENDBRANCH  21  22
ENDBRANCH  15  21
ENDBRANCH  13  15
ENDBRANCH  10  11
ENDBRANCH   1  10
TORSDOF 9
ENDMDL
