MODEL 1
REMARK VINA RESULT:    -5.729      0.000      0.000
REMARK INTER + INTRA:          -7.997
REMARK INTER:                  -7.403
REMARK INTRA:                  -0.594
REMARK UNBOUND:                -0.594
REMARK SMILES COC[C@@H](C)Nc1c(C)nn(C(C)C)c1C
REMARK SMILES IDX 6 1 7 3 8 4 10 5 15 6 11 7 9 8 16 9 12 10 13 11 14 12 4 13
REMARK SMILES IDX 5 14 3 15 2 16 1 17
REMARK H PARENT 6 2
ROOT
ATOM      1  N   UNL     1      50.525  53.058  18.342  1.00  0.00    -0.377 N 
ATOM      2  H   UNL     1      50.398  53.817  17.673  1.00  0.00    +0.161 HD
ENDROOT
BRANCH   1   3
ATOM      3  C   UNL     1      49.688  52.018  18.083  1.00  0.00    +0.079 A 
ATOM      4  C   UNL     1      48.514  52.027  17.294  1.00  0.00    +0.083 A 
ATOM      5  N   UNL     1      47.926  50.825  17.283  1.00  0.00    -0.176 NA
ATOM      6  C   UNL     1      49.781  50.750  18.609  1.00  0.00    +0.059 A 
ATOM      7  N   UNL     1      48.723  50.060  18.059  1.00  0.00    -0.265 N 
ATOM      8  C   UNL     1      47.904  53.154  16.552  1.00  0.00    +0.071 C 
ATOM      9  C   UNL     1      50.769  50.139  19.529  1.00  0.00    +0.069 C 
BRANCH   7  10
ATOM     10  C   UNL     1      48.385  48.649  18.239  1.00  0.00    +0.101 C 
ATOM     11  C   UNL     1      46.978  48.482  18.810  1.00  0.00    +0.033 C 
ATOM     12  C   UNL     1      48.556  47.864  16.938  1.00  0.00    +0.033 C 
ENDBRANCH   7  10
ENDBRANCH   1   3
BRANCH   1  13
ATOM     13  C   UNL     1      50.472  53.678  19.694  1.00  0.00    +0.102 C 
ATOM     14  C   UNL     1      49.307  54.673  19.687  1.00  0.00    +0.033 C 
BRANCH  13  15
ATOM     15  C   UNL     1      51.774  54.410  20.089  1.00  0.00    +0.184 C 
BRANCH  15  16
ATOM     16  O   UNL     1      52.054  54.195  21.478  1.00  0.00    -0.383 OA
ATOM     17  C   UNL     1      51.676  52.893  21.897  1.00  0.00    +0.194 C 
ENDBRANCH  15  16
ENDBRANCH  13  15
ENDBRANCH   1  13
TORSDOF 5
ENDMDL
MODEL 2
REMARK VINA RESULT:    -5.589      2.400      5.440
REMARK INTER + INTRA:          -7.817
REMARK INTER:                  -7.228
REMARK INTRA:                  -0.589
REMARK UNBOUND:                -0.594
REMARK SMILES COC[C@@H](C)Nc1c(C)nn(C(C)C)c1C
REMARK SMILES IDX 6 1 7 3 8 4 10 5 15 6 11 7 9 8 16 9 12 10 13 11 14 12 4 13
REMARK SMILES IDX 5 14 3 15 2 16 1 17
REMARK H PARENT 6 2
ROOT
ATOM      1  N   UNL     1      49.722  49.418  17.354  1.00  0.00    -0.377 N 
ATOM      2  H   UNL     1      50.567  48.920  17.072  1.00  0.00    +0.161 HD
ENDROOT
BRANCH   1   3
ATOM      3  C   UNL     1      50.017  50.548  18.052  1.00  0.00    +0.079 A 
ATOM      4  C   UNL     1      49.534  51.857  17.823  1.00  0.00    +0.083 A 
ATOM      5  N   UNL     1      50.061  52.729  18.692  1.00  0.00    -0.176 NA
ATOM      6  C   UNL     1      50.918  50.652  19.086  1.00  0.00    +0.059 A 
ATOM      7  N   UNL     1      50.872  51.975  19.465  1.00  0.00    -0.265 N 
ATOM      8  C   UNL     1      48.591  52.330  16.784  1.00  0.00    +0.071 C 
ATOM      9  C   UNL     1      51.768  49.637  19.754  1.00  0.00    +0.069 C 
BRANCH   7  10
ATOM     10  C   UNL     1      51.594  52.618  20.562  1.00  0.00    +0.101 C 
ATOM     11  C   UNL     1      51.994  54.048  20.202  1.00  0.00    +0.033 C 
ATOM     12  C   UNL     1      50.790  52.573  21.862  1.00  0.00    +0.033 C 
ENDBRANCH   7  10
ENDBRANCH   1   3
BRANCH   1  13
ATOM     13  C   UNL     1      48.836  48.410  17.997  1.00  0.00    +0.102 C 
ATOM     14  C   UNL     1      48.599  47.300  16.969  1.00  0.00    +0.033 C 
BRANCH  13  15
ATOM     15  C   UNL     1      47.479  48.986  18.459  1.00  0.00    +0.184 C 
BRANCH  15  16
ATOM     16  O   UNL     1      46.704  49.383  17.321  1.00  0.00    -0.383 OA
ATOM     17  C   UNL     1      45.329  49.070  17.482  1.00  0.00    +0.194 C 
ENDBRANCH  15  16
ENDBRANCH  13  15
ENDBRANCH   1  13
TORSDOF 5
ENDMDL
MODEL 3
REMARK VINA RESULT:    -5.505      0.958      2.439
REMARK INTER + INTRA:          -7.708
REMARK INTER:                  -7.073
REMARK INTRA:                  -0.635
REMARK UNBOUND:                -0.594
REMARK SMILES COC[C@@H](C)Nc1c(C)nn(C(C)C)c1C
REMARK SMILES IDX 6 1 7 3 8 4 10 5 15 6 11 7 9 8 16 9 12 10 13 11 14 12 4 13
REMARK SMILES IDX 5 14 3 15 2 16 1 17
REMARK H PARENT 6 2
ROOT
ATOM      1  N   UNL     1      50.877  52.189  18.193  1.00  0.00    -0.377 N 
ATOM      2  H   UNL     1      50.714  52.701  17.326  1.00  0.00    +0.161 HD
ENDROOT
BRANCH   1   3
ATOM      3  C   UNL     1      50.150  51.041  18.240  1.00  0.00    +0.079 A 
ATOM      4  C   UNL     1      50.377  49.905  19.051  1.00  0.00    +0.083 A 
ATOM      5  N   UNL     1      49.474  48.947  18.811  1.00  0.00    -0.176 NA
ATOM      6  C   UNL     1      49.076  50.726  17.439  1.00  0.00    +0.059 A 
ATOM      7  N   UNL     1      48.679  49.474  17.855  1.00  0.00    -0.265 N 
ATOM      8  C   UNL     1      51.448  49.676  20.048  1.00  0.00    +0.071 C 
ATOM      9  C   UNL     1      48.390  51.492  16.371  1.00  0.00    +0.069 C 
BRANCH   7  10
ATOM     10  C   UNL     1      47.543  48.691  17.374  1.00  0.00    +0.101 C 
ATOM     11  C   UNL     1      48.004  47.480  16.565  1.00  0.00    +0.033 C 
ATOM     12  C   UNL     1      46.622  48.277  18.523  1.00  0.00    +0.033 C 
ENDBRANCH   7  10
ENDBRANCH   1   3
BRANCH   1  13
ATOM     13  C   UNL     1      50.706  53.171  19.298  1.00  0.00    +0.102 C 
ATOM     14  C   UNL     1      49.679  54.205  18.825  1.00  0.00    +0.033 C 
BRANCH  13  15
ATOM     15  C   UNL     1      52.016  53.888  19.696  1.00  0.00    +0.184 C 
BRANCH  15  16
ATOM     16  O   UNL     1      52.047  54.098  21.112  1.00  0.00    -0.383 OA
ATOM     17  C   UNL     1      51.713  52.919  21.829  1.00  0.00    +0.194 C 
ENDBRANCH  15  16
ENDBRANCH  13  15
ENDBRANCH   1  13
TORSDOF 5
ENDMDL
MODEL 4
REMARK VINA RESULT:    -5.397      2.842      5.926
REMARK INTER + INTRA:          -7.569
REMARK INTER:                  -7.106
REMARK INTRA:                  -0.463
REMARK UNBOUND:                -0.594
REMARK SMILES COC[C@@H](C)Nc1c(C)nn(C(C)C)c1C
REMARK SMILES IDX 6 1 7 3 8 4 10 5 15 6 11 7 9 8 16 9 12 10 13 11 14 12 4 13
REMARK SMILES IDX 5 14 3 15 2 16 1 17
REMARK H PARENT 6 2
ROOT
ATOM      1  N   UNL     1      50.541  52.509  20.109  1.00  0.00    -0.377 N 
ATOM      2  H   UNL     1      50.039  52.119  19.311  1.00  0.00    +0.161 HD
ENDROOT
BRANCH   1   3
ATOM      3  C   UNL     1      50.267  53.831  20.275  1.00  0.00    +0.079 A 
ATOM      4  C   UNL     1      49.517  54.673  19.420  1.00  0.00    +0.083 A 
ATOM      5  N   UNL     1      49.476  55.926  19.887  1.00  0.00    -0.176 NA
ATOM      6  C   UNL     1      50.737  54.638  21.285  1.00  0.00    +0.059 A 
ATOM      7  N   UNL     1      50.194  55.878  21.029  1.00  0.00    -0.265 N 
ATOM      8  C   UNL     1      48.843  54.337  18.145  1.00  0.00    +0.071 C 
ATOM      9  C   UNL     1      51.598  54.345  22.455  1.00  0.00    +0.069 C 
BRANCH   7  10
ATOM     10  C   UNL     1      50.326  57.094  21.829  1.00  0.00    +0.101 C 
ATOM     11  C   UNL     1      51.579  57.879  21.446  1.00  0.00    +0.033 C 
ATOM     12  C   UNL     1      49.072  57.964  21.735  1.00  0.00    +0.033 C 
ENDBRANCH   7  10
ENDBRANCH   1   3
BRANCH   1  13
ATOM     13  C   UNL     1      51.965  52.105  19.948  1.00  0.00    +0.102 C 
ATOM     14  C   UNL     1      52.246  52.042  18.444  1.00  0.00    +0.033 C 
BRANCH  13  15
ATOM     15  C   UNL     1      52.296  50.740  20.593  1.00  0.00    +0.184 C 
BRANCH  15  16
ATOM     16  O   UNL     1      51.090  50.102  21.031  1.00  0.00    -0.383 OA
ATOM     17  C   UNL     1      50.819  48.921  20.292  1.00  0.00    +0.194 C 
ENDBRANCH  15  16
ENDBRANCH  13  15
ENDBRANCH   1  13
TORSDOF 5
ENDMDL
MODEL 5
REMARK VINA RESULT:    -5.324      2.144      3.188
REMARK INTER + INTRA:          -7.475
REMARK INTER:                  -6.927
REMARK INTRA:                  -0.547
REMARK UNBOUND:                -0.594
REMARK SMILES COC[C@@H](C)Nc1c(C)nn(C(C)C)c1C
REMARK SMILES IDX 6 1 7 3 8 4 10 5 15 6 11 7 9 8 16 9 12 10 13 11 14 12 4 13
REMARK SMILES IDX 5 14 3 15 2 16 1 17
REMARK H PARENT 6 2
ROOT
ATOM      1  N   UNL     1      50.235  54.829  19.399  1.00  0.00    -0.377 N 
ATOM      2  H   UNL     1      49.898  55.202  18.511  1.00  0.00    +0.161 HD
ENDROOT
BRANCH   1   3
ATOM      3  C   UNL     1      50.318  53.472  19.372  1.00  0.00    +0.079 A 
ATOM      4  C   UNL     1      49.686  52.584  18.471  1.00  0.00    +0.083 A 
ATOM      5  N   UNL     1      49.974  51.309  18.761  1.00  0.00    -0.176 NA
ATOM      6  C   UNL     1      50.985  52.680  20.279  1.00  0.00    +0.059 A 
ATOM      7  N   UNL     1      50.784  51.391  19.839  1.00  0.00    -0.265 N 
ATOM      8  C   UNL     1      48.786  52.897  17.337  1.00  0.00    +0.071 C 
ATOM      9  C   UNL     1      51.801  53.023  21.468  1.00  0.00    +0.069 C 
BRANCH   7  10
ATOM     10  C   UNL     1      51.324  50.157  20.407  1.00  0.00    +0.101 C 
ATOM     11  C   UNL     1      50.374  48.981  20.188  1.00  0.00    +0.033 C 
ATOM     12  C   UNL     1      52.721  49.856  19.864  1.00  0.00    +0.033 C 
ENDBRANCH   7  10
ENDBRANCH   1   3
BRANCH   1  13
ATOM     13  C   UNL     1      49.403  55.458  20.461  1.00  0.00    +0.102 C 
ATOM     14  C   UNL     1      48.194  56.092  19.766  1.00  0.00    +0.033 C 
BRANCH  13  15
ATOM     15  C   UNL     1      50.153  56.534  21.278  1.00  0.00    +0.184 C 
BRANCH  15  16
ATOM     16  O   UNL     1      51.133  57.176  20.454  1.00  0.00    -0.383 OA
ATOM     17  C   UNL     1      52.055  57.934  21.224  1.00  0.00    +0.194 C 
ENDBRANCH  15  16
ENDBRANCH  13  15
ENDBRANCH   1  13
TORSDOF 5
ENDMDL
