MODEL 1
REMARK VINA RESULT:    -7.805      0.000      0.000
REMARK INTER + INTRA:         -10.776
REMARK INTER:                 -10.086
REMARK INTRA:                  -0.690
REMARK UNBOUND:                -0.690
REMARK SMILES O=C([O-])c1cccc(F)c1NCCN1CC[NH2+]CC1
REMARK SMILES IDX 11 1 10 3 6 4 5 5 7 6 4 7 8 8 9 9 2 10 1 11 3 12 12 13 13 14
REMARK SMILES IDX 14 15 15 16 19 17 16 18 18 19 17 20
REMARK H PARENT 11 2 17 21 17 22
ROOT
ATOM      1  N   UNL     1      50.800  54.399  20.445  1.00  0.00    -0.381 N 
ATOM      2  H   UNL     1      50.725  54.197  19.433  1.00  0.00    +0.160 HD
ENDROOT
BRANCH   1   3
ATOM      3  C   UNL     1      50.000  55.545  20.709  1.00  0.00    +0.080 A 
ATOM      4  C   UNL     1      48.390  57.830  21.123  1.00  0.00    +0.004 A 
ATOM      5  C   UNL     1      49.647  57.733  21.718  1.00  0.00    +0.012 A 
ATOM      6  C   UNL     1      47.934  56.798  20.310  1.00  0.00    +0.041 A 
ATOM      7  C   UNL     1      50.468  56.600  21.529  1.00  0.00    +0.023 A 
ATOM      8  C   UNL     1      48.735  55.678  20.104  1.00  0.00    +0.146 A 
ATOM      9  F   UNL     1      48.271  54.712  19.293  1.00  0.00    -0.205 F 
BRANCH   7  10
ATOM     10  C   UNL     1      51.830  56.597  22.157  1.00  0.00    +0.074 C 
ATOM     11  O   UNL     1      52.158  55.638  22.941  1.00  0.00    -0.545 OA
ATOM     12  O   UNL     1      52.670  57.487  21.810  1.00  0.00    -0.545 OA
ENDBRANCH   7  10
ENDBRANCH   1   3
BRANCH   1  13
ATOM     13  C   UNL     1      50.395  53.217  21.227  1.00  0.00    +0.128 C 
BRANCH  13  14
ATOM     14  C   UNL     1      51.660  52.456  21.711  1.00  0.00    +0.106 C 
BRANCH  14  15
ATOM     15  N   UNL     1      51.845  51.206  20.973  1.00  0.00    -0.291 NA
ATOM     16  C   UNL     1      50.700  50.306  20.905  1.00  0.00    +0.146 C 
ATOM     17  C   UNL     1      52.562  51.327  19.691  1.00  0.00    +0.146 C 
ATOM     18  C   UNL     1      51.140  48.863  20.537  1.00  0.00    +0.276 C 
ATOM     19  C   UNL     1      52.780  49.960  18.993  1.00  0.00    +0.276 C 
ATOM     20  N   UNL     1      52.511  48.863  19.963  1.00  0.00    -0.344 N 
ATOM     21  H   UNL     1      52.883  47.956  19.670  1.00  0.00    +0.346 HD
ATOM     22  H   UNL     1      53.147  49.088  20.785  1.00  0.00    +0.346 HD
ENDBRANCH  14  15
ENDBRANCH  13  14
ENDBRANCH   1  13
TORSDOF 5
ENDMDL
MODEL 2
REMARK VINA RESULT:    -7.130      3.075      6.282
REMARK INTER + INTRA:          -9.904
REMARK INTER:                  -9.214
REMARK INTRA:                  -0.690
REMARK UNBOUND:                -0.690
REMARK SMILES O=C([O-])c1cccc(F)c1NCCN1CC[NH2+]CC1
REMARK SMILES IDX 11 1 10 3 6 4 5 5 7 6 4 7 8 8 9 9 2 10 1 11 3 12 12 13 13 14
REMARK SMILES IDX 14 15 15 16 19 17 16 18 18 19 17 20
REMARK H PARENT 11 2 17 21 17 22
ROOT
ATOM      1  N   UNL     1      51.592  52.445  18.094  1.00  0.00    -0.381 N 
ATOM      2  H   UNL     1      52.555  52.162  18.346  1.00  0.00    +0.160 HD
ENDROOT
BRANCH   1   3
ATOM      3  C   UNL     1      50.741  51.335  18.357  1.00  0.00    +0.080 A 
ATOM      4  C   UNL     1      48.965  49.204  18.889  1.00  0.00    +0.004 A 
ATOM      5  C   UNL     1      50.184  49.293  19.561  1.00  0.00    +0.012 A 
ATOM      6  C   UNL     1      48.619  50.179  17.961  1.00  0.00    +0.041 A 
ATOM      7  C   UNL     1      51.089  50.347  19.309  1.00  0.00    +0.023 A 
ATOM      8  C   UNL     1      49.495  51.231  17.708  1.00  0.00    +0.146 A 
ATOM      9  F   UNL     1      49.117  52.168  16.823  1.00  0.00    -0.205 F 
BRANCH   7  10
ATOM     10  C   UNL     1      52.353  50.405  20.114  1.00  0.00    +0.074 C 
ATOM     11  O   UNL     1      52.452  51.255  21.068  1.00  0.00    -0.545 OA
ATOM     12  O   UNL     1      53.257  49.535  19.906  1.00  0.00    -0.545 OA
ENDBRANCH   7  10
ENDBRANCH   1   3
BRANCH   1  13
ATOM     13  C   UNL     1      51.211  53.657  18.840  1.00  0.00    +0.128 C 
BRANCH  13  14
ATOM     14  C   UNL     1      52.490  54.413  19.293  1.00  0.00    +0.106 C 
BRANCH  14  15
ATOM     15  N   UNL     1      52.194  55.366  20.363  1.00  0.00    -0.291 NA
ATOM     16  C   UNL     1      51.429  56.552  19.995  1.00  0.00    +0.146 C 
ATOM     17  C   UNL     1      51.761  54.773  21.640  1.00  0.00    +0.146 C 
ATOM     18  C   UNL     1      51.592  57.678  21.053  1.00  0.00    +0.276 C 
ATOM     19  C   UNL     1      51.527  55.833  22.747  1.00  0.00    +0.276 C 
ATOM     20  N   UNL     1      52.129  57.127  22.326  1.00  0.00    -0.344 N 
ATOM     21  H   UNL     1      52.253  57.791  23.093  1.00  0.00    +0.346 HD
ATOM     22  H   UNL     1      53.139  56.879  22.106  1.00  0.00    +0.346 HD
ENDBRANCH  14  15
ENDBRANCH  13  14
ENDBRANCH   1  13
TORSDOF 5
ENDMDL
MODEL 3
REMARK VINA RESULT:    -6.796      2.584      3.121
REMARK INTER + INTRA:          -9.472
REMARK INTER:                  -8.965
REMARK INTRA:                  -0.507
REMARK UNBOUND:                -0.690
REMARK SMILES O=C([O-])c1cccc(F)c1NCCN1CC[NH2+]CC1
REMARK SMILES IDX 11 1 10 3 6 4 5 5 7 6 4 7 8 8 9 9 2 10 1 11 3 12 12 13 13 14
REMARK SMILES IDX 14 15 15 16 19 17 16 18 18 19 17 20
REMARK H PARENT 11 2 17 21 17 22
ROOT
ATOM      1  N   UNL     1      50.862  55.399  19.989  1.00  0.00    -0.381 N 
ATOM      2  H   UNL     1      50.901  55.278  18.961  1.00  0.00    +0.160 HD
ENDROOT
BRANCH   1   3
ATOM      3  C   UNL     1      49.866  56.376  20.264  1.00  0.00    +0.080 A 
ATOM      4  C   UNL     1      47.874  58.270  20.914  1.00  0.00    +0.004 A 
ATOM      5  C   UNL     1      47.827  57.583  19.701  1.00  0.00    +0.012 A 
ATOM      6  C   UNL     1      48.902  58.010  21.812  1.00  0.00    +0.041 A 
ATOM      7  C   UNL     1      48.814  56.634  19.353  1.00  0.00    +0.023 A 
ATOM      8  C   UNL     1      49.877  57.069  21.490  1.00  0.00    +0.146 A 
ATOM      9  F   UNL     1      50.841  56.826  22.393  1.00  0.00    -0.205 F 
BRANCH   7  10
ATOM     10  C   UNL     1      48.662  55.896  18.057  1.00  0.00    +0.074 C 
ATOM     11  O   UNL     1      48.491  56.558  16.973  1.00  0.00    -0.545 OA
ATOM     12  O   UNL     1      48.817  54.634  18.045  1.00  0.00    -0.545 OA
ENDBRANCH   7  10
ENDBRANCH   1   3
BRANCH   1  13
ATOM     13  C   UNL     1      50.599  54.103  20.639  1.00  0.00    +0.128 C 
BRANCH  13  14
ATOM     14  C   UNL     1      51.945  53.377  20.916  1.00  0.00    +0.106 C 
BRANCH  14  15
ATOM     15  N   UNL     1      52.089  52.186  20.079  1.00  0.00    -0.291 NA
ATOM     16  C   UNL     1      52.237  50.910  20.769  1.00  0.00    +0.146 C 
ATOM     17  C   UNL     1      51.184  52.113  18.918  1.00  0.00    +0.146 C 
ATOM     18  C   UNL     1      52.848  49.831  19.833  1.00  0.00    +0.276 C 
ATOM     19  C   UNL     1      51.433  50.860  18.039  1.00  0.00    +0.276 C 
ATOM     20  N   UNL     1      52.739  50.249  18.410  1.00  0.00    -0.344 N 
ATOM     21  H   UNL     1      53.097  49.593  17.713  1.00  0.00    +0.346 HD
ATOM     22  H   UNL     1      53.432  51.050  18.311  1.00  0.00    +0.346 HD
ENDBRANCH  14  15
ENDBRANCH  13  14
ENDBRANCH   1  13
TORSDOF 5
ENDMDL
MODEL 4
REMARK VINA RESULT:    -6.668      3.967      6.790
REMARK INTER + INTRA:          -9.307
REMARK INTER:                  -8.675
REMARK INTRA:                  -0.631
REMARK UNBOUND:                -0.690
REMARK SMILES O=C([O-])c1cccc(F)c1NCCN1CC[NH2+]CC1
REMARK SMILES IDX 11 1 10 3 6 4 5 5 7 6 4 7 8 8 9 9 2 10 1 11 3 12 12 13 13 14
REMARK SMILES IDX 14 15 15 16 19 17 16 18 18 19 17 20
REMARK H PARENT 11 2 17 21 17 22
ROOT
ATOM      1  N   UNL     1      50.927  52.543  18.044  1.00  0.00    -0.381 N 
ATOM      2  H   UNL     1      51.933  52.302  17.994  1.00  0.00    +0.160 HD
ENDROOT
BRANCH   1   3
ATOM      3  C   UNL     1      50.224  51.356  18.389  1.00  0.00    +0.080 A 
ATOM      4  C   UNL     1      48.924  48.943  19.075  1.00  0.00    +0.004 A 
ATOM      5  C   UNL     1      48.432  49.744  18.045  1.00  0.00    +0.012 A 
ATOM      6  C   UNL     1      50.070  49.332  19.759  1.00  0.00    +0.041 A 
ATOM      7  C   UNL     1      49.062  50.955  17.687  1.00  0.00    +0.023 A 
ATOM      8  C   UNL     1      50.711  50.519  19.412  1.00  0.00    +0.146 A 
ATOM      9  F   UNL     1      51.829  50.850  20.078  1.00  0.00    -0.205 F 
BRANCH   7  10
ATOM     10  C   UNL     1      48.505  51.730  16.530  1.00  0.00    +0.074 C 
ATOM     11  O   UNL     1      48.315  52.992  16.653  1.00  0.00    -0.545 OA
ATOM     12  O   UNL     1      48.337  51.140  15.416  1.00  0.00    -0.545 OA
ENDBRANCH   7  10
ENDBRANCH   1   3
BRANCH   1  13
ATOM     13  C   UNL     1      50.718  53.641  19.003  1.00  0.00    +0.128 C 
BRANCH  13  14
ATOM     14  C   UNL     1      52.048  54.421  19.200  1.00  0.00    +0.106 C 
BRANCH  14  15
ATOM     15  N   UNL     1      51.975  55.312  20.358  1.00  0.00    -0.291 NA
ATOM     16  C   UNL     1      51.283  56.582  20.169  1.00  0.00    +0.146 C 
ATOM     17  C   UNL     1      51.651  54.662  21.640  1.00  0.00    +0.146 C 
ATOM     18  C   UNL     1      51.678  57.607  21.267  1.00  0.00    +0.276 C 
ATOM     19  C   UNL     1      51.655  55.652  22.834  1.00  0.00    +0.276 C 
ATOM     20  N   UNL     1      52.316  56.920  22.422  1.00  0.00    -0.344 N 
ATOM     21  H   UNL     1      52.595  57.511  23.207  1.00  0.00    +0.346 HD
ATOM     22  H   UNL     1      53.264  56.606  22.057  1.00  0.00    +0.346 HD
ENDBRANCH  14  15
ENDBRANCH  13  14
ENDBRANCH   1  13
TORSDOF 5
ENDMDL
MODEL 5
REMARK VINA RESULT:    -6.224      4.043      5.136
REMARK INTER + INTRA:          -8.734
REMARK INTER:                  -7.728
REMARK INTRA:                  -1.006
REMARK UNBOUND:                -0.690
REMARK SMILES O=C([O-])c1cccc(F)c1NCCN1CC[NH2+]CC1
REMARK SMILES IDX 11 1 10 3 6 4 5 5 7 6 4 7 8 8 9 9 2 10 1 11 3 12 12 13 13 14
REMARK SMILES IDX 14 15 15 16 19 17 16 18 18 19 17 20
REMARK H PARENT 11 2 17 21 17 22
ROOT
ATOM      1  N   UNL     1      50.481  52.610  18.031  1.00  0.00    -0.381 N 
ATOM      2  H   UNL     1      50.990  53.293  17.442  1.00  0.00    +0.160 HD
ENDROOT
BRANCH   1   3
ATOM      3  C   UNL     1      50.813  52.887  19.386  1.00  0.00    +0.080 A 
ATOM      4  C   UNL     1      51.545  53.517  22.041  1.00  0.00    +0.004 A 
ATOM      5  C   UNL     1      51.499  52.190  21.616  1.00  0.00    +0.012 A 
ATOM      6  C   UNL     1      51.239  54.536  21.146  1.00  0.00    +0.041 A 
ATOM      7  C   UNL     1      51.133  51.850  20.295  1.00  0.00    +0.023 A 
ATOM      8  C   UNL     1      50.887  54.220  19.836  1.00  0.00    +0.146 A 
ATOM      9  F   UNL     1      50.622  55.232  18.993  1.00  0.00    -0.205 F 
BRANCH   7  10
ATOM     10  C   UNL     1      51.165  50.404  19.899  1.00  0.00    +0.074 C 
ATOM     11  O   UNL     1      50.072  49.819  19.574  1.00  0.00    -0.545 OA
ATOM     12  O   UNL     1      52.288  49.820  19.786  1.00  0.00    -0.545 OA
ENDBRANCH   7  10
ENDBRANCH   1   3
BRANCH   1  13
ATOM     13  C   UNL     1      49.035  52.689  17.760  1.00  0.00    +0.128 C 
BRANCH  13  14
ATOM     14  C   UNL     1      48.695  51.845  16.501  1.00  0.00    +0.106 C 
BRANCH  14  15
ATOM     15  N   UNL     1      48.440  50.447  16.850  1.00  0.00    -0.291 NA
ATOM     16  C   UNL     1      47.103  50.122  17.333  1.00  0.00    +0.146 C 
ATOM     17  C   UNL     1      48.970  49.450  15.904  1.00  0.00    +0.146 C 
ATOM     18  C   UNL     1      47.095  48.773  18.103  1.00  0.00    +0.276 C 
ATOM     19  C   UNL     1      48.723  47.990  16.366  1.00  0.00    +0.276 C 
ATOM     20  N   UNL     1      48.322  47.989  17.800  1.00  0.00    -0.344 N 
ATOM     21  H   UNL     1      48.399  47.072  18.246  1.00  0.00    +0.346 HD
ATOM     22  H   UNL     1      49.106  48.518  18.284  1.00  0.00    +0.346 HD
ENDBRANCH  14  15
ENDBRANCH  13  14
ENDBRANCH   1  13
TORSDOF 5
ENDMDL
