MODEL 1
REMARK VINA RESULT:    -5.281      0.000      0.000
REMARK INTER + INTRA:          -6.773
REMARK INTER:                  -6.516
REMARK INTRA:                  -0.257
REMARK UNBOUND:                -0.257
REMARK SMILES C[NH2+]CCNC(=O)[C@@H]1CSC(=O)N1
REMARK SMILES IDX 4 1 3 2 2 3 1 4 5 7 6 8 7 9 8 11 9 12 13 13 10 14 11 15
REMARK SMILES IDX 12 16
REMARK H PARENT 2 5 2 6 5 10 13 17
ROOT
ATOM      1  C   UNL     1      50.666  56.926  22.002  1.00  0.00    +0.177 C 
ENDROOT
BRANCH   1   2
ATOM      2  C   UNL     1      51.689  57.948  21.467  1.00  0.00    +0.281 C 
BRANCH   2   3
ATOM      3  N   UNL     1      52.959  57.908  22.257  1.00  0.00    -0.347 N 
ATOM      4  C   UNL     1      54.203  57.915  21.456  1.00  0.00    +0.331 C 
ATOM      5  H   UNL     1      52.961  57.106  22.900  1.00  0.00    +0.346 HD
ATOM      6  H   UNL     1      52.967  58.735  22.894  1.00  0.00    +0.346 HD
ENDBRANCH   2   3
ENDBRANCH   1   2
BRANCH   1   7
ATOM      7  N   UNL     1      50.600  55.661  21.275  1.00  0.00    -0.349 N 
ATOM      8  C   UNL     1      51.314  54.531  21.611  1.00  0.00    +0.243 C 
ATOM      9  O   UNL     1      51.938  54.461  22.670  1.00  0.00    -0.273 OA
ATOM     10  H   UNL     1      50.283  55.697  20.305  1.00  0.00    +0.163 HD
BRANCH   8  11
ATOM     11  C   UNL     1      51.343  53.427  20.543  1.00  0.00    +0.182 C 
ATOM     12  C   UNL     1      51.866  52.137  21.154  1.00  0.00    +0.115 C 
ATOM     13  N   UNL     1      52.218  53.774  19.441  1.00  0.00    -0.334 N 
ATOM     14  S   UNL     1      52.616  51.265  19.756  1.00  0.00    -0.062 SA
ATOM     15  C   UNL     1      52.803  52.714  18.804  1.00  0.00    +0.279 C 
ATOM     16  O   UNL     1      53.358  52.781  17.724  1.00  0.00    -0.262 OA
ATOM     17  H   UNL     1      52.029  54.559  18.826  1.00  0.00    +0.165 HD
ENDBRANCH   8  11
ENDBRANCH   1   7
TORSDOF 4
ENDMDL
MODEL 2
REMARK VINA RESULT:    -5.179      5.191      6.715
REMARK INTER + INTRA:          -6.647
REMARK INTER:                  -6.167
REMARK INTRA:                  -0.481
REMARK UNBOUND:                -0.257
REMARK SMILES C[NH2+]CCNC(=O)[C@@H]1CSC(=O)N1
REMARK SMILES IDX 4 1 3 2 2 3 1 4 5 7 6 8 7 9 8 11 9 12 13 13 10 14 11 15
REMARK SMILES IDX 12 16
REMARK H PARENT 2 5 2 6 5 10 13 17
ROOT
ATOM      1  C   UNL     1      52.550  49.738  19.832  1.00  0.00    +0.177 C 
ENDROOT
BRANCH   1   2
ATOM      2  C   UNL     1      52.759  51.069  20.584  1.00  0.00    +0.281 C 
BRANCH   2   3
ATOM      3  N   UNL     1      51.903  51.138  21.810  1.00  0.00    -0.347 N 
ATOM      4  C   UNL     1      50.931  52.253  21.839  1.00  0.00    +0.331 C 
ATOM      5  H   UNL     1      52.484  51.157  22.657  1.00  0.00    +0.346 HD
ATOM      6  H   UNL     1      51.381  50.237  21.889  1.00  0.00    +0.346 HD
ENDBRANCH   2   3
ENDBRANCH   1   2
BRANCH   1   7
ATOM      7  N   UNL     1      51.346  49.662  19.010  1.00  0.00    -0.349 N 
ATOM      8  C   UNL     1      50.137  49.161  19.441  1.00  0.00    +0.243 C 
ATOM      9  O   UNL     1      49.943  48.895  20.628  1.00  0.00    -0.273 OA
ATOM     10  H   UNL     1      51.473  49.666  17.997  1.00  0.00    +0.163 HD
BRANCH   8  11
ATOM     11  C   UNL     1      49.106  48.881  18.338  1.00  0.00    +0.182 C 
ATOM     12  C   UNL     1      48.988  50.092  17.427  1.00  0.00    +0.115 C 
ATOM     13  N   UNL     1      47.790  48.621  18.892  1.00  0.00    -0.334 N 
ATOM     14  S   UNL     1      47.297  49.993  16.787  1.00  0.00    -0.062 SA
ATOM     15  C   UNL     1      46.741  48.977  18.090  1.00  0.00    +0.279 C 
ATOM     16  O   UNL     1      45.591  48.620  18.263  1.00  0.00    -0.262 OA
ATOM     17  H   UNL     1      47.598  47.812  19.473  1.00  0.00    +0.165 HD
ENDBRANCH   8  11
ENDBRANCH   1   7
TORSDOF 4
ENDMDL
MODEL 3
REMARK VINA RESULT:    -5.141      1.879      2.117
REMARK INTER + INTRA:          -6.601
REMARK INTER:                  -6.158
REMARK INTRA:                  -0.443
REMARK UNBOUND:                -0.257
REMARK SMILES C[NH2+]CCNC(=O)[C@@H]1CSC(=O)N1
REMARK SMILES IDX 4 1 3 2 2 3 1 4 5 7 6 8 7 9 8 11 9 12 13 13 10 14 11 15
REMARK SMILES IDX 12 16
REMARK H PARENT 2 5 2 6 5 10 13 17
ROOT
ATOM      1  C   UNL     1      50.157  56.660  21.461  1.00  0.00    +0.177 C 
ENDROOT
BRANCH   1   2
ATOM      2  C   UNL     1      51.203  57.716  21.047  1.00  0.00    +0.281 C 
BRANCH   2   3
ATOM      3  N   UNL     1      52.198  57.950  22.140  1.00  0.00    -0.347 N 
ATOM      4  C   UNL     1      53.615  57.954  21.714  1.00  0.00    +0.331 C 
ATOM      5  H   UNL     1      52.063  57.277  22.903  1.00  0.00    +0.346 HD
ATOM      6  H   UNL     1      51.979  58.871  22.581  1.00  0.00    +0.346 HD
ENDBRANCH   2   3
ENDBRANCH   1   2
BRANCH   1   7
ATOM      7  N   UNL     1      50.552  55.269  21.259  1.00  0.00    -0.349 N 
ATOM      8  C   UNL     1      51.435  54.585  22.066  1.00  0.00    +0.243 C 
ATOM      9  O   UNL     1      51.826  55.060  23.132  1.00  0.00    -0.273 OA
ATOM     10  H   UNL     1      50.442  54.885  20.320  1.00  0.00    +0.163 HD
BRANCH   8  11
ATOM     11  C   UNL     1      51.951  53.253  21.500  1.00  0.00    +0.182 C 
ATOM     12  C   UNL     1      51.846  53.264  19.984  1.00  0.00    +0.115 C 
ATOM     13  N   UNL     1      51.170  52.131  21.984  1.00  0.00    -0.334 N 
ATOM     14  S   UNL     1      51.660  51.518  19.548  1.00  0.00    -0.062 SA
ATOM     15  C   UNL     1      51.098  51.062  21.134  1.00  0.00    +0.279 C 
ATOM     16  O   UNL     1      50.710  49.954  21.453  1.00  0.00    -0.262 OA
ATOM     17  H   UNL     1      51.148  51.869  22.964  1.00  0.00    +0.165 HD
ENDBRANCH   8  11
ENDBRANCH   1   7
TORSDOF 4
ENDMDL
MODEL 4
REMARK VINA RESULT:    -5.092      4.482      5.922
REMARK INTER + INTRA:          -6.540
REMARK INTER:                  -6.386
REMARK INTRA:                  -0.155
REMARK UNBOUND:                -0.257
REMARK SMILES C[NH2+]CCNC(=O)[C@@H]1CSC(=O)N1
REMARK SMILES IDX 4 1 3 2 2 3 1 4 5 7 6 8 7 9 8 11 9 12 13 13 10 14 11 15
REMARK SMILES IDX 12 16
REMARK H PARENT 2 5 2 6 5 10 13 17
ROOT
ATOM      1  C   UNL     1      51.030  50.409  20.483  1.00  0.00    +0.177 C 
ENDROOT
BRANCH   1   2
ATOM      2  C   UNL     1      52.205  51.248  21.026  1.00  0.00    +0.281 C 
BRANCH   2   3
ATOM      3  N   UNL     1      51.789  52.057  22.214  1.00  0.00    -0.347 N 
ATOM      4  C   UNL     1      51.580  53.499  21.955  1.00  0.00    +0.331 C 
ATOM      5  H   UNL     1      52.453  51.932  22.988  1.00  0.00    +0.346 HD
ATOM      6  H   UNL     1      50.901  51.652  22.584  1.00  0.00    +0.346 HD
ENDBRANCH   2   3
ENDBRANCH   1   2
BRANCH   1   7
ATOM      7  N   UNL     1      50.513  50.818  19.180  1.00  0.00    -0.349 N 
ATOM      8  C   UNL     1      49.556  50.128  18.470  1.00  0.00    +0.243 C 
ATOM      9  O   UNL     1      48.937  49.192  18.975  1.00  0.00    -0.273 OA
ATOM     10  H   UNL     1      51.099  51.439  18.621  1.00  0.00    +0.163 HD
BRANCH   8  11
ATOM     11  C   UNL     1      49.390  50.550  17.002  1.00  0.00    +0.182 C 
ATOM     12  C   UNL     1      48.195  49.834  16.394  1.00  0.00    +0.115 C 
ATOM     13  N   UNL     1      50.556  50.202  16.212  1.00  0.00    -0.334 N 
ATOM     14  S   UNL     1      48.598  49.734  14.632  1.00  0.00    -0.062 SA
ATOM     15  C   UNL     1      50.309  49.941  14.893  1.00  0.00    +0.279 C 
ATOM     16  O   UNL     1      51.166  49.877  14.032  1.00  0.00    -0.262 OA
ATOM     17  H   UNL     1      51.466  50.619  16.377  1.00  0.00    +0.165 HD
ENDBRANCH   8  11
ENDBRANCH   1   7
TORSDOF 4
ENDMDL
MODEL 5
REMARK VINA RESULT:    -5.048      3.073      5.898
REMARK INTER + INTRA:          -6.486
REMARK INTER:                  -6.338
REMARK INTRA:                  -0.148
REMARK UNBOUND:                -0.257
REMARK SMILES C[NH2+]CCNC(=O)[C@@H]1CSC(=O)N1
REMARK SMILES IDX 4 1 3 2 2 3 1 4 5 7 6 8 7 9 8 11 9 12 13 13 10 14 11 15
REMARK SMILES IDX 12 16
REMARK H PARENT 2 5 2 6 5 10 13 17
ROOT
ATOM      1  C   UNL     1      52.357  51.067  20.878  1.00  0.00    +0.177 C 
ENDROOT
BRANCH   1   2
ATOM      2  C   UNL     1      52.756  50.055  19.783  1.00  0.00    +0.281 C 
BRANCH   2   3
ATOM      3  N   UNL     1      52.197  48.697  20.071  1.00  0.00    -0.347 N 
ATOM      4  C   UNL     1      50.768  48.671  20.455  1.00  0.00    +0.331 C 
ATOM      5  H   UNL     1      52.760  48.217  20.782  1.00  0.00    +0.346 HD
ATOM      6  H   UNL     1      52.323  48.110  19.217  1.00  0.00    +0.346 HD
ENDBRANCH   2   3
ENDBRANCH   1   2
BRANCH   1   7
ATOM      7  N   UNL     1      52.159  52.440  20.424  1.00  0.00    -0.349 N 
ATOM      8  C   UNL     1      51.787  53.485  21.241  1.00  0.00    +0.243 C 
ATOM      9  O   UNL     1      51.761  53.360  22.465  1.00  0.00    -0.273 OA
ATOM     10  H   UNL     1      51.963  52.579  19.432  1.00  0.00    +0.163 HD
BRANCH   8  11
ATOM     11  C   UNL     1      51.329  54.760  20.516  1.00  0.00    +0.182 C 
ATOM     12  C   UNL     1      52.191  55.934  20.952  1.00  0.00    +0.115 C 
ATOM     13  N   UNL     1      49.952  55.087  20.832  1.00  0.00    -0.334 N 
ATOM     14  S   UNL     1      51.108  57.370  20.743  1.00  0.00    -0.062 SA
ATOM     15  C   UNL     1      49.647  56.420  20.793  1.00  0.00    +0.279 C 
ATOM     16  O   UNL     1      48.515  56.866  20.781  1.00  0.00    -0.262 OA
ATOM     17  H   UNL     1      49.178  54.488  20.565  1.00  0.00    +0.165 HD
ENDBRANCH   8  11
ENDBRANCH   1   7
TORSDOF 4
ENDMDL
