MODEL 1
REMARK VINA RESULT:    -7.867      0.000      0.000
REMARK INTER + INTRA:         -11.299
REMARK INTER:                 -10.396
REMARK INTRA:                  -0.903
REMARK UNBOUND:                -0.903
REMARK SMILES C[C@H](OC(=O)c1ccc(N)c(F)c1)C(=O)NC1CCCC1
REMARK SMILES IDX 4 1 5 2 3 3 2 4 1 5 14 6 15 7 16 8 17 10 18 11 21 12 19 13
REMARK SMILES IDX 20 14 6 15 7 16 13 17 8 18 11 19 9 20 12 21 10 22
REMARK H PARENT 16 9 10 23 10 24
ROOT
ATOM      1  C   UNL     1      51.551  55.151  21.343  1.00  0.00    +0.339 C 
ATOM      2  O   UNL     1      52.680  55.612  21.356  1.00  0.00    -0.246 OA
ENDROOT
BRANCH   1   3
ATOM      3  O   UNL     1      51.223  53.846  21.490  1.00  0.00    -0.449 OA
BRANCH   3   4
ATOM      4  C   UNL     1      52.021  52.913  20.735  1.00  0.00    +0.262 C 
ATOM      5  C   UNL     1      51.914  51.528  21.357  1.00  0.00    +0.064 C 
BRANCH   4   6
ATOM      6  C   UNL     1      51.496  52.922  19.292  1.00  0.00    +0.261 C 
ATOM      7  O   UNL     1      52.106  53.412  18.348  1.00  0.00    -0.271 OA
ATOM      8  N   UNL     1      50.234  52.364  19.169  1.00  0.00    -0.350 N 
ATOM      9  H   UNL     1      49.932  51.771  19.931  1.00  0.00    +0.163 HD
BRANCH   8  10
ATOM     10  C   UNL     1      49.617  52.190  17.872  1.00  0.00    +0.082 C 
ATOM     11  C   UNL     1      48.892  50.844  17.732  1.00  0.00    +0.025 C 
ATOM     12  C   UNL     1      48.547  53.240  17.592  1.00  0.00    +0.025 C 
ATOM     13  C   UNL     1      47.583  51.140  16.996  1.00  0.00    +0.002 C 
ATOM     14  C   UNL     1      47.697  52.582  16.519  1.00  0.00    +0.002 C 
ENDBRANCH   8  10
ENDBRANCH   4   6
ENDBRANCH   3   4
ENDBRANCH   1   3
BRANCH   1  15
ATOM     15  C   UNL     1      50.330  55.973  21.131  1.00  0.00    +0.063 A 
ATOM     16  C   UNL     1      49.336  55.623  20.207  1.00  0.00    +0.018 A 
ATOM     17  C   UNL     1      50.173  57.128  21.904  1.00  0.00    +0.057 A 
ATOM     18  C   UNL     1      48.203  56.431  20.046  1.00  0.00    +0.029 A 
ATOM     19  C   UNL     1      49.042  57.920  21.732  1.00  0.00    +0.146 A 
ATOM     20  C   UNL     1      48.064  57.614  20.775  1.00  0.00    +0.068 A 
ATOM     21  F   UNL     1      48.900  59.017  22.491  1.00  0.00    -0.205 F 
BRANCH  20  22
ATOM     22  N   UNL     1      46.872  58.350  20.701  1.00  0.00    -0.396 N 
ATOM     23  H   UNL     1      46.653  58.892  21.530  1.00  0.00    +0.156 HD
ATOM     24  H   UNL     1      46.085  57.796  20.367  1.00  0.00    +0.156 HD
ENDBRANCH  20  22
ENDBRANCH   1  15
TORSDOF 6
ENDMDL
MODEL 2
REMARK VINA RESULT:    -7.746      2.902      3.742
REMARK INTER + INTRA:         -11.140
REMARK INTER:                 -10.495
REMARK INTRA:                  -0.645
REMARK UNBOUND:                -0.903
REMARK SMILES C[C@H](OC(=O)c1ccc(N)c(F)c1)C(=O)NC1CCCC1
REMARK SMILES IDX 4 1 5 2 3 3 2 4 1 5 14 6 15 7 16 8 17 10 18 11 21 12 19 13
REMARK SMILES IDX 20 14 6 15 7 16 13 17 8 18 11 19 9 20 12 21 10 22
REMARK H PARENT 16 9 10 23 10 24
ROOT
ATOM      1  C   UNL     1      52.257  52.993  18.586  1.00  0.00    +0.339 C 
ATOM      2  O   UNL     1      53.300  52.921  17.957  1.00  0.00    -0.246 OA
ENDROOT
BRANCH   1   3
ATOM      3  O   UNL     1      51.130  52.286  18.339  1.00  0.00    -0.449 OA
BRANCH   3   4
ATOM      4  C   UNL     1      51.318  50.878  18.090  1.00  0.00    +0.262 C 
ATOM      5  C   UNL     1      51.458  50.140  19.414  1.00  0.00    +0.064 C 
BRANCH   4   6
ATOM      6  C   UNL     1      50.099  50.385  17.299  1.00  0.00    +0.261 C 
ATOM      7  O   UNL     1      50.007  50.450  16.077  1.00  0.00    -0.271 OA
ATOM      8  N   UNL     1      49.083  49.902  18.108  1.00  0.00    -0.350 N 
ATOM      9  H   UNL     1      49.346  49.654  19.054  1.00  0.00    +0.163 HD
BRANCH   8  10
ATOM     10  C   UNL     1      47.898  49.298  17.541  1.00  0.00    +0.082 C 
ATOM     11  C   UNL     1      47.314  48.185  18.423  1.00  0.00    +0.025 C 
ATOM     12  C   UNL     1      46.760  50.300  17.372  1.00  0.00    +0.025 C 
ATOM     13  C   UNL     1      45.794  48.368  18.388  1.00  0.00    +0.002 C 
ATOM     14  C   UNL     1      45.531  49.410  17.310  1.00  0.00    +0.002 C 
ENDBRANCH   8  10
ENDBRANCH   4   6
ENDBRANCH   3   4
ENDBRANCH   1   3
BRANCH   1  15
ATOM     15  C   UNL     1      52.053  53.912  19.737  1.00  0.00    +0.063 A 
ATOM     16  C   UNL     1      51.789  53.449  21.034  1.00  0.00    +0.018 A 
ATOM     17  C   UNL     1      52.150  55.287  19.505  1.00  0.00    +0.057 A 
ATOM     18  C   UNL     1      51.605  54.356  22.085  1.00  0.00    +0.029 A 
ATOM     19  C   UNL     1      51.965  56.175  20.560  1.00  0.00    +0.146 A 
ATOM     20  C   UNL     1      51.646  55.732  21.852  1.00  0.00    +0.068 A 
ATOM     21  F   UNL     1      52.074  57.492  20.323  1.00  0.00    -0.205 F 
BRANCH  20  22
ATOM     22  N   UNL     1      51.588  56.630  22.928  1.00  0.00    -0.396 N 
ATOM     23  H   UNL     1      52.477  56.813  23.381  1.00  0.00    +0.156 HD
ATOM     24  H   UNL     1      50.844  56.410  23.587  1.00  0.00    +0.156 HD
ENDBRANCH  20  22
ENDBRANCH   1  15
TORSDOF 6
ENDMDL
MODEL 3
REMARK VINA RESULT:    -7.735      1.142      1.538
REMARK INTER + INTRA:         -11.125
REMARK INTER:                 -10.196
REMARK INTRA:                  -0.929
REMARK UNBOUND:                -0.903
REMARK SMILES C[C@H](OC(=O)c1ccc(N)c(F)c1)C(=O)NC1CCCC1
REMARK SMILES IDX 4 1 5 2 3 3 2 4 1 5 14 6 15 7 16 8 17 10 18 11 21 12 19 13
REMARK SMILES IDX 20 14 6 15 7 16 13 17 8 18 11 19 9 20 12 21 10 22
REMARK H PARENT 16 9 10 23 10 24
ROOT
ATOM      1  C   UNL     1      51.296  55.385  21.653  1.00  0.00    +0.339 C 
ATOM      2  O   UNL     1      52.382  55.746  22.075  1.00  0.00    -0.246 OA
ENDROOT
BRANCH   1   3
ATOM      3  O   UNL     1      50.899  54.103  21.473  1.00  0.00    -0.449 OA
BRANCH   3   4
ATOM      4  C   UNL     1      51.848  53.243  20.814  1.00  0.00    +0.262 C 
ATOM      5  C   UNL     1      51.855  51.878  21.487  1.00  0.00    +0.064 C 
BRANCH   4   6
ATOM      6  C   UNL     1      51.428  53.140  19.341  1.00  0.00    +0.261 C 
ATOM      7  O   UNL     1      52.110  53.548  18.406  1.00  0.00    -0.271 OA
ATOM      8  N   UNL     1      50.171  52.582  19.171  1.00  0.00    -0.350 N 
ATOM      9  H   UNL     1      49.807  52.054  19.955  1.00  0.00    +0.163 HD
BRANCH   8  10
ATOM     10  C   UNL     1      49.646  52.308  17.852  1.00  0.00    +0.082 C 
ATOM     11  C   UNL     1      48.841  51.001  17.788  1.00  0.00    +0.025 C 
ATOM     12  C   UNL     1      48.677  53.386  17.377  1.00  0.00    +0.025 C 
ATOM     13  C   UNL     1      47.617  51.297  16.918  1.00  0.00    +0.002 C 
ATOM     14  C   UNL     1      47.869  52.670  16.309  1.00  0.00    +0.002 C 
ENDBRANCH   8  10
ENDBRANCH   4   6
ENDBRANCH   3   4
ENDBRANCH   1   3
BRANCH   1  15
ATOM     15  C   UNL     1      50.222  56.326  21.237  1.00  0.00    +0.063 A 
ATOM     16  C   UNL     1      49.842  57.427  22.016  1.00  0.00    +0.018 A 
ATOM     17  C   UNL     1      49.590  56.101  20.010  1.00  0.00    +0.057 A 
ATOM     18  C   UNL     1      48.824  58.286  21.579  1.00  0.00    +0.029 A 
ATOM     19  C   UNL     1      48.581  56.962  19.591  1.00  0.00    +0.146 A 
ATOM     20  C   UNL     1      48.150  58.037  20.382  1.00  0.00    +0.068 A 
ATOM     21  F   UNL     1      47.993  56.740  18.405  1.00  0.00    -0.205 F 
BRANCH  20  22
ATOM     22  N   UNL     1      47.223  58.968  19.890  1.00  0.00    -0.396 N 
ATOM     23  H   UNL     1      46.963  59.698  20.545  1.00  0.00    +0.156 HD
ATOM     24  H   UNL     1      46.420  58.529  19.444  1.00  0.00    +0.156 HD
ENDBRANCH  20  22
ENDBRANCH   1  15
TORSDOF 6
ENDMDL
MODEL 4
REMARK VINA RESULT:    -7.661      1.952      2.781
REMARK INTER + INTRA:         -11.028
REMARK INTER:                 -10.515
REMARK INTRA:                  -0.513
REMARK UNBOUND:                -0.903
REMARK SMILES C[C@H](OC(=O)c1ccc(N)c(F)c1)C(=O)NC1CCCC1
REMARK SMILES IDX 4 1 5 2 3 3 2 4 1 5 14 6 15 7 16 8 17 10 18 11 21 12 19 13
REMARK SMILES IDX 20 14 6 15 7 16 13 17 8 18 11 19 9 20 12 21 10 22
REMARK H PARENT 16 9 10 23 10 24
ROOT
ATOM      1  C   UNL     1      49.187  54.504  18.820  1.00  0.00    +0.339 C 
ATOM      2  O   UNL     1      48.596  54.528  17.753  1.00  0.00    -0.246 OA
ENDROOT
BRANCH   1   3
ATOM      3  O   UNL     1      49.935  53.479  19.291  1.00  0.00    -0.449 OA
BRANCH   3   4
ATOM      4  C   UNL     1      50.928  52.962  18.383  1.00  0.00    +0.262 C 
ATOM      5  C   UNL     1      52.274  52.881  19.088  1.00  0.00    +0.064 C 
BRANCH   4   6
ATOM      6  C   UNL     1      50.451  51.577  17.923  1.00  0.00    +0.261 C 
ATOM      7  O   UNL     1      51.208  50.671  17.590  1.00  0.00    -0.271 OA
ATOM      8  N   UNL     1      49.071  51.466  17.871  1.00  0.00    -0.350 N 
ATOM      9  H   UNL     1      48.547  52.156  18.396  1.00  0.00    +0.163 HD
BRANCH   8  10
ATOM     10  C   UNL     1      48.433  50.206  17.560  1.00  0.00    +0.082 C 
ATOM     11  C   UNL     1      48.476  49.210  18.727  1.00  0.00    +0.025 C 
ATOM     12  C   UNL     1      46.950  50.369  17.241  1.00  0.00    +0.025 C 
ATOM     13  C   UNL     1      47.101  48.539  18.766  1.00  0.00    +0.002 C 
ATOM     14  C   UNL     1      46.394  48.978  17.491  1.00  0.00    +0.002 C 
ENDBRANCH   8  10
ENDBRANCH   4   6
ENDBRANCH   3   4
ENDBRANCH   1   3
BRANCH   1  15
ATOM     15  C   UNL     1      49.155  55.620  19.802  1.00  0.00    +0.063 A 
ATOM     16  C   UNL     1      48.103  56.546  19.857  1.00  0.00    +0.018 A 
ATOM     17  C   UNL     1      50.211  55.726  20.712  1.00  0.00    +0.057 A 
ATOM     18  C   UNL     1      48.118  57.579  20.803  1.00  0.00    +0.029 A 
ATOM     19  C   UNL     1      50.211  56.758  21.645  1.00  0.00    +0.146 A 
ATOM     20  C   UNL     1      49.196  57.725  21.679  1.00  0.00    +0.068 A 
ATOM     21  F   UNL     1      51.226  56.839  22.520  1.00  0.00    -0.205 F 
BRANCH  20  22
ATOM     22  N   UNL     1      49.144  58.682  22.704  1.00  0.00    -0.396 N 
ATOM     23  H   UNL     1      49.237  58.308  23.642  1.00  0.00    +0.156 HD
ATOM     24  H   UNL     1      48.360  59.324  22.606  1.00  0.00    +0.156 HD
ENDBRANCH  20  22
ENDBRANCH   1  15
TORSDOF 6
ENDMDL
MODEL 5
REMARK VINA RESULT:    -7.544      2.635      3.420
REMARK INTER + INTRA:         -10.873
REMARK INTER:                 -10.159
REMARK INTRA:                  -0.714
REMARK UNBOUND:                -0.903
REMARK SMILES C[C@H](OC(=O)c1ccc(N)c(F)c1)C(=O)NC1CCCC1
REMARK SMILES IDX 4 1 5 2 3 3 2 4 1 5 14 6 15 7 16 8 17 10 18 11 21 12 19 13
REMARK SMILES IDX 20 14 6 15 7 16 13 17 8 18 11 19 9 20 12 21 10 22
REMARK H PARENT 16 9 10 23 10 24
ROOT
ATOM      1  C   UNL     1      50.118  52.916  19.390  1.00  0.00    +0.339 C 
ATOM      2  O   UNL     1      49.718  52.762  18.248  1.00  0.00    -0.246 OA
ENDROOT
BRANCH   1   3
ATOM      3  O   UNL     1      50.638  51.954  20.187  1.00  0.00    -0.449 OA
BRANCH   3   4
ATOM      4  C   UNL     1      51.376  50.916  19.512  1.00  0.00    +0.262 C 
ATOM      5  C   UNL     1      52.678  50.650  20.254  1.00  0.00    +0.064 C 
BRANCH   4   6
ATOM      6  C   UNL     1      50.484  49.667  19.477  1.00  0.00    +0.261 C 
ATOM      7  O   UNL     1      50.397  48.864  20.401  1.00  0.00    -0.271 OA
ATOM      8  N   UNL     1      49.821  49.506  18.271  1.00  0.00    -0.350 N 
ATOM      9  H   UNL     1      49.753  50.329  17.685  1.00  0.00    +0.163 HD
BRANCH   8  10
ATOM     10  C   UNL     1      48.856  48.445  18.084  1.00  0.00    +0.082 C 
ATOM     11  C   UNL     1      47.468  48.794  18.642  1.00  0.00    +0.025 C 
ATOM     12  C   UNL     1      48.616  48.131  16.611  1.00  0.00    +0.025 C 
ATOM     13  C   UNL     1      46.456  48.284  17.614  1.00  0.00    +0.002 C 
ATOM     14  C   UNL     1      47.258  47.450  16.625  1.00  0.00    +0.002 C 
ENDBRANCH   8  10
ENDBRANCH   4   6
ENDBRANCH   3   4
ENDBRANCH   1   3
BRANCH   1  15
ATOM     15  C   UNL     1      50.069  54.217  20.109  1.00  0.00    +0.063 A 
ATOM     16  C   UNL     1      49.047  55.154  19.902  1.00  0.00    +0.018 A 
ATOM     17  C   UNL     1      51.078  54.494  21.036  1.00  0.00    +0.057 A 
ATOM     18  C   UNL     1      49.047  56.367  20.605  1.00  0.00    +0.029 A 
ATOM     19  C   UNL     1      51.063  55.702  21.725  1.00  0.00    +0.146 A 
ATOM     20  C   UNL     1      50.080  56.675  21.492  1.00  0.00    +0.068 A 
ATOM     21  F   UNL     1      52.032  55.948  22.621  1.00  0.00    -0.205 F 
BRANCH  20  22
ATOM     22  N   UNL     1      50.006  57.830  22.284  1.00  0.00    -0.396 N 
ATOM     23  H   UNL     1      50.316  58.681  21.827  1.00  0.00    +0.156 HD
ATOM     24  H   UNL     1      50.413  57.703  23.209  1.00  0.00    +0.156 HD
ENDBRANCH  20  22
ENDBRANCH   1  15
TORSDOF 6
ENDMDL
