MODEL 1
REMARK VINA RESULT:    -8.280      0.000      0.000
REMARK INTER + INTRA:         -11.079
REMARK INTER:                 -10.459
REMARK INTRA:                  -0.620
REMARK UNBOUND:                -0.620
REMARK SMILES C[C@@H]1CCC[C@@H](Sc2ccc(/C(N)=N/O)cc2[N+](=O)[O-])C1
REMARK SMILES IDX 8 1 9 2 10 3 11 4 16 5 17 6 7 7 6 8 2 9 3 10 21 11 4 12 5 13
REMARK SMILES IDX 1 14 18 15 19 16 20 17 12 18 14 19 13 20 15 23
REMARK H PARENT 13 21 13 22 15 24
ROOT
ATOM      1  C   UNL     1      50.600  51.649  18.580  1.00  0.00    +0.085 A 
ATOM      2  C   UNL     1      50.053  52.934  18.679  1.00  0.00    +0.023 A 
ATOM      3  C   UNL     1      50.409  53.790  19.730  1.00  0.00    +0.014 A 
ATOM      4  C   UNL     1      51.315  53.371  20.712  1.00  0.00    +0.027 A 
ATOM      5  C   UNL     1      51.855  52.085  20.646  1.00  0.00    +0.099 A 
ATOM      6  C   UNL     1      51.490  51.247  19.584  1.00  0.00    +0.283 A 
ENDROOT
BRANCH   1   7
ATOM      7  S   UNL     1      50.062  50.616  17.226  1.00  0.00    -0.116 SA
BRANCH   7   8
ATOM      8  C   UNL     1      48.315  50.307  17.728  1.00  0.00    +0.052 C 
ATOM      9  C   UNL     1      47.293  48.608  16.121  1.00  0.00    -0.013 C 
ATOM     10  C   UNL     1      46.607  47.843  17.268  1.00  0.00    +0.003 C 
ATOM     11  C   UNL     1      47.445  50.092  16.474  1.00  0.00    +0.018 C 
ATOM     12  C   UNL     1      46.901  48.423  18.653  1.00  0.00    +0.001 C 
ATOM     13  C   UNL     1      48.257  49.118  18.703  1.00  0.00    +0.015 C 
ATOM     14  C   UNL     1      46.525  48.425  14.813  1.00  0.00    +0.007 C 
ENDBRANCH   7   8
ENDBRANCH   1   7
BRANCH   6  15
ATOM     15  N   UNL     1      52.077  49.925  19.560  1.00  0.00    +0.063 N 
ATOM     16  O   UNL     1      53.182  49.813  19.011  1.00  0.00    -0.258 OA
ATOM     17  O   UNL     1      51.453  49.023  20.132  1.00  0.00    -0.258 OA
ENDBRANCH   6  15
BRANCH   4  18
ATOM     18  C   UNL     1      51.696  54.282  21.837  1.00  0.00    +0.170 C 
ATOM     19  N   UNL     1      52.163  55.464  21.550  1.00  0.00    -0.071 NA
ATOM     20  N   UNL     1      51.537  53.858  23.136  1.00  0.00    -0.380 N 
ATOM     21  H   UNL     1      51.705  54.648  23.759  1.00  0.00    +0.158 HD
ATOM     22  H   UNL     1      50.646  53.422  23.337  1.00  0.00    +0.158 HD
BRANCH  19  23
ATOM     23  O   UNL     1      52.442  56.191  22.720  1.00  0.00    -0.409 OA
ATOM     24  H   UNL     1      52.699  55.484  23.341  1.00  0.00    +0.330 HD
ENDBRANCH  19  23
ENDBRANCH   4  18
TORSDOF 5
ENDMDL
MODEL 2
REMARK VINA RESULT:    -7.792      3.653      6.864
REMARK INTER + INTRA:         -10.462
REMARK INTER:                 -10.650
REMARK INTRA:                   0.188
REMARK UNBOUND:                -0.620
REMARK SMILES C[C@@H]1CCC[C@@H](Sc2ccc(/C(N)=N/O)cc2[N+](=O)[O-])C1
REMARK SMILES IDX 8 1 9 2 10 3 11 4 16 5 17 6 7 7 6 8 2 9 3 10 21 11 4 12 5 13
REMARK SMILES IDX 1 14 18 15 19 16 20 17 12 18 14 19 13 20 15 23
REMARK H PARENT 13 21 13 22 15 24
ROOT
ATOM      1  C   UNL     1      49.696  53.943  18.320  1.00  0.00    +0.085 A 
ATOM      2  C   UNL     1      50.819  53.788  19.142  1.00  0.00    +0.023 A 
ATOM      3  C   UNL     1      51.314  52.515  19.453  1.00  0.00    +0.014 A 
ATOM      4  C   UNL     1      50.687  51.366  18.954  1.00  0.00    +0.027 A 
ATOM      5  C   UNL     1      49.551  51.496  18.151  1.00  0.00    +0.099 A 
ATOM      6  C   UNL     1      49.075  52.779  17.848  1.00  0.00    +0.283 A 
ENDROOT
BRANCH   1   7
ATOM      7  S   UNL     1      49.115  55.603  18.005  1.00  0.00    -0.116 SA
BRANCH   7   8
ATOM      8  C   UNL     1      48.311  55.977  19.622  1.00  0.00    +0.052 C 
ATOM      9  C   UNL     1      50.060  56.968  21.194  1.00  0.00    -0.013 C 
ATOM     10  C   UNL     1      49.084  58.044  21.702  1.00  0.00    +0.003 C 
ATOM     11  C   UNL     1      49.303  55.704  20.770  1.00  0.00    +0.018 C 
ATOM     12  C   UNL     1      47.709  57.989  21.033  1.00  0.00    +0.001 C 
ATOM     13  C   UNL     1      47.786  57.423  19.620  1.00  0.00    +0.015 C 
ATOM     14  C   UNL     1      51.117  56.652  22.250  1.00  0.00    +0.007 C 
ENDBRANCH   7   8
ENDBRANCH   1   7
BRANCH   6  15
ATOM     15  N   UNL     1      47.898  52.860  17.012  1.00  0.00    +0.063 N 
ATOM     16  O   UNL     1      47.974  53.578  16.006  1.00  0.00    -0.258 OA
ATOM     17  O   UNL     1      46.926  52.169  17.342  1.00  0.00    -0.258 OA
ENDBRANCH   6  15
BRANCH   4  18
ATOM     18  C   UNL     1      51.213  50.004  19.287  1.00  0.00    +0.170 C 
ATOM     19  N   UNL     1      52.446  49.896  19.691  1.00  0.00    -0.071 NA
ATOM     20  N   UNL     1      50.386  48.912  19.167  1.00  0.00    -0.380 N 
ATOM     21  H   UNL     1      50.858  48.102  19.569  1.00  0.00    +0.158 HD
ATOM     22  H   UNL     1      49.464  49.028  19.567  1.00  0.00    +0.158 HD
BRANCH  19  23
ATOM     23  O   UNL     1      52.762  48.557  19.982  1.00  0.00    -0.409 OA
ATOM     24  H   UNL     1      52.159  48.364  20.723  1.00  0.00    +0.330 HD
ENDBRANCH  19  23
ENDBRANCH   4  18
TORSDOF 5
ENDMDL
MODEL 3
REMARK VINA RESULT:    -7.758      2.814      7.086
REMARK INTER + INTRA:         -10.420
REMARK INTER:                  -9.913
REMARK INTRA:                  -0.507
REMARK UNBOUND:                -0.620
REMARK SMILES C[C@@H]1CCC[C@@H](Sc2ccc(/C(N)=N/O)cc2[N+](=O)[O-])C1
REMARK SMILES IDX 8 1 9 2 10 3 11 4 16 5 17 6 7 7 6 8 2 9 3 10 21 11 4 12 5 13
REMARK SMILES IDX 1 14 18 15 19 16 20 17 12 18 14 19 13 20 15 23
REMARK H PARENT 13 21 13 22 15 24
ROOT
ATOM      1  C   UNL     1      50.826  52.393  19.018  1.00  0.00    +0.085 A 
ATOM      2  C   UNL     1      49.796  52.427  18.069  1.00  0.00    +0.023 A 
ATOM      3  C   UNL     1      49.015  51.292  17.814  1.00  0.00    +0.014 A 
ATOM      4  C   UNL     1      49.255  50.094  18.498  1.00  0.00    +0.027 A 
ATOM      5  C   UNL     1      50.293  50.031  19.432  1.00  0.00    +0.099 A 
ATOM      6  C   UNL     1      51.059  51.178  19.676  1.00  0.00    +0.283 A 
ENDROOT
BRANCH   1   7
ATOM      7  S   UNL     1      51.792  53.877  19.252  1.00  0.00    -0.116 SA
BRANCH   7   8
ATOM      8  C   UNL     1      50.852  54.663  20.630  1.00  0.00    +0.052 C 
ATOM      9  C   UNL     1      51.771  57.014  21.008  1.00  0.00    -0.013 C 
ATOM     10  C   UNL     1      50.358  57.607  21.165  1.00  0.00    +0.003 C 
ATOM     11  C   UNL     1      51.798  55.550  21.463  1.00  0.00    +0.018 C 
ATOM     12  C   UNL     1      49.239  56.579  20.990  1.00  0.00    +0.001 C 
ATOM     13  C   UNL     1      49.652  55.441  20.064  1.00  0.00    +0.015 C 
ATOM     14  C   UNL     1      52.797  57.850  21.769  1.00  0.00    +0.007 C 
ENDBRANCH   7   8
ENDBRANCH   1   7
BRANCH   6  15
ATOM     15  N   UNL     1      52.120  51.063  20.651  1.00  0.00    +0.063 N 
ATOM     16  O   UNL     1      51.904  51.541  21.773  1.00  0.00    -0.258 OA
ATOM     17  O   UNL     1      53.139  50.452  20.303  1.00  0.00    -0.258 OA
ENDBRANCH   6  15
BRANCH   4  18
ATOM     18  C   UNL     1      48.423  48.880  18.226  1.00  0.00    +0.170 C 
ATOM     19  N   UNL     1      47.155  48.917  18.522  1.00  0.00    -0.071 NA
ATOM     20  N   UNL     1      49.009  47.768  17.668  1.00  0.00    -0.380 N 
ATOM     21  H   UNL     1      48.276  47.104  17.422  1.00  0.00    +0.158 HD
ATOM     22  H   UNL     1      49.609  47.955  16.875  1.00  0.00    +0.158 HD
BRANCH  19  23
ATOM     23  O   UNL     1      46.525  47.707  18.178  1.00  0.00    -0.409 OA
ATOM     24  H   UNL     1      45.752  47.706  18.772  1.00  0.00    +0.330 HD
ENDBRANCH  19  23
ENDBRANCH   4  18
TORSDOF 5
ENDMDL
MODEL 4
REMARK VINA RESULT:    -7.671      2.395      2.950
REMARK INTER + INTRA:         -10.309
REMARK INTER:                  -9.837
REMARK INTRA:                  -0.473
REMARK UNBOUND:                -0.620
REMARK SMILES C[C@@H]1CCC[C@@H](Sc2ccc(/C(N)=N/O)cc2[N+](=O)[O-])C1
REMARK SMILES IDX 8 1 9 2 10 3 11 4 16 5 17 6 7 7 6 8 2 9 3 10 21 11 4 12 5 13
REMARK SMILES IDX 1 14 18 15 19 16 20 17 12 18 14 19 13 20 15 23
REMARK H PARENT 13 21 13 22 15 24
ROOT
ATOM      1  C   UNL     1      49.460  49.386  18.450  1.00  0.00    +0.085 A 
ATOM      2  C   UNL     1      49.843  49.056  19.756  1.00  0.00    +0.023 A 
ATOM      3  C   UNL     1      50.495  49.991  20.573  1.00  0.00    +0.014 A 
ATOM      4  C   UNL     1      50.784  51.275  20.094  1.00  0.00    +0.027 A 
ATOM      5  C   UNL     1      50.432  51.617  18.786  1.00  0.00    +0.099 A 
ATOM      6  C   UNL     1      49.778  50.670  17.987  1.00  0.00    +0.283 A 
ENDROOT
BRANCH   1   7
ATOM      7  S   UNL     1      48.667  48.120  17.470  1.00  0.00    -0.116 SA
BRANCH   7   8
ATOM      8  C   UNL     1      46.940  48.767  17.441  1.00  0.00    +0.052 C 
ATOM      9  C   UNL     1      45.713  47.730  15.459  1.00  0.00    -0.013 C 
ATOM     10  C   UNL     1      44.443  47.485  16.294  1.00  0.00    +0.003 C 
ATOM     11  C   UNL     1      46.480  48.950  15.982  1.00  0.00    +0.018 C 
ATOM     12  C   UNL     1      44.578  47.916  17.756  1.00  0.00    +0.001 C 
ATOM     13  C   UNL     1      46.020  47.831  18.243  1.00  0.00    +0.015 C 
ATOM     14  C   UNL     1      45.367  47.884  13.979  1.00  0.00    +0.007 C 
ENDBRANCH   7   8
ENDBRANCH   1   7
BRANCH   6  15
ATOM     15  N   UNL     1      49.433  51.072  16.642  1.00  0.00    +0.063 N 
ATOM     16  O   UNL     1      50.043  50.518  15.718  1.00  0.00    -0.258 OA
ATOM     17  O   UNL     1      48.524  51.903  16.520  1.00  0.00    -0.258 OA
ENDBRANCH   6  15
BRANCH   4  18
ATOM     18  C   UNL     1      51.481  52.274  20.964  1.00  0.00    +0.170 C 
ATOM     19  N   UNL     1      51.621  53.492  20.523  1.00  0.00    -0.071 NA
ATOM     20  N   UNL     1      51.946  51.889  22.200  1.00  0.00    -0.380 N 
ATOM     21  H   UNL     1      52.255  52.720  22.704  1.00  0.00    +0.158 HD
ATOM     22  H   UNL     1      51.290  51.353  22.754  1.00  0.00    +0.158 HD
BRANCH  19  23
ATOM     23  O   UNL     1      52.271  54.298  21.473  1.00  0.00    -0.409 OA
ATOM     24  H   UNL     1      51.619  55.009  21.615  1.00  0.00    +0.330 HD
ENDBRANCH  19  23
ENDBRANCH   4  18
TORSDOF 5
ENDMDL
MODEL 5
REMARK VINA RESULT:    -7.018      3.767      5.589
REMARK INTER + INTRA:          -9.485
REMARK INTER:                  -9.012
REMARK INTRA:                  -0.473
REMARK UNBOUND:                -0.620
REMARK SMILES C[C@@H]1CCC[C@@H](Sc2ccc(/C(N)=N/O)cc2[N+](=O)[O-])C1
REMARK SMILES IDX 8 1 9 2 10 3 11 4 16 5 17 6 7 7 6 8 2 9 3 10 21 11 4 12 5 13
REMARK SMILES IDX 1 14 18 15 19 16 20 17 12 18 14 19 13 20 15 23
REMARK H PARENT 13 21 13 22 15 24
ROOT
ATOM      1  C   UNL     1      50.695  54.266  20.940  1.00  0.00    +0.085 A 
ATOM      2  C   UNL     1      49.495  53.869  20.337  1.00  0.00    +0.023 A 
ATOM      3  C   UNL     1      48.752  54.763  19.554  1.00  0.00    +0.014 A 
ATOM      4  C   UNL     1      49.193  56.079  19.366  1.00  0.00    +0.027 A 
ATOM      5  C   UNL     1      50.376  56.503  19.977  1.00  0.00    +0.099 A 
ATOM      6  C   UNL     1      51.106  55.592  20.752  1.00  0.00    +0.283 A 
ENDROOT
BRANCH   1   7
ATOM      7  S   UNL     1      51.556  53.069  21.949  1.00  0.00    -0.116 SA
BRANCH   7   8
ATOM      8  C   UNL     1      52.366  52.060  20.636  1.00  0.00    +0.052 C 
ATOM      9  C   UNL     1      50.582  50.661  19.464  1.00  0.00    -0.013 C 
ATOM     10  C   UNL     1      51.175  50.955  18.074  1.00  0.00    +0.003 C 
ATOM     11  C   UNL     1      51.675  50.685  20.538  1.00  0.00    +0.018 C 
ATOM     12  C   UNL     1      52.393  51.881  18.112  1.00  0.00    +0.001 C 
ATOM     13  C   UNL     1      52.350  52.830  19.304  1.00  0.00    +0.015 C 
ATOM     14  C   UNL     1      49.835  49.329  19.464  1.00  0.00    +0.007 C 
ENDBRANCH   7   8
ENDBRANCH   1   7
BRANCH   6  15
ATOM     15  N   UNL     1      52.323  56.078  21.363  1.00  0.00    +0.063 N 
ATOM     16  O   UNL     1      53.257  56.362  20.601  1.00  0.00    -0.258 OA
ATOM     17  O   UNL     1      52.317  56.219  22.592  1.00  0.00    -0.258 OA
ENDBRANCH   6  15
BRANCH   4  18
ATOM     18  C   UNL     1      48.401  57.037  18.531  1.00  0.00    +0.170 C 
ATOM     19  N   UNL     1      48.265  56.788  17.260  1.00  0.00    -0.071 NA
ATOM     20  N   UNL     1      47.834  58.141  19.122  1.00  0.00    -0.380 N 
ATOM     21  H   UNL     1      47.220  58.593  18.444  1.00  0.00    +0.158 HD
ATOM     22  H   UNL     1      47.343  57.958  19.988  1.00  0.00    +0.158 HD
BRANCH  19  23
ATOM     23  O   UNL     1      47.475  57.771  16.639  1.00  0.00    -0.409 OA
ATOM     24  H   UNL     1      48.150  58.378  16.283  1.00  0.00    +0.330 HD
ENDBRANCH  19  23
ENDBRANCH   4  18
TORSDOF 5
ENDMDL
