MODEL 1
REMARK VINA RESULT:    -8.734      0.000      0.000
REMARK INTER + INTRA:         -13.590
REMARK INTER:                 -12.308
REMARK INTRA:                  -1.281
REMARK UNBOUND:                -1.281
REMARK SMILES CCOc1cc(F)ccc1N[C@@H](C)C(=O)Nc1cccc(C(=O)NC)c1
REMARK SMILES IDX 11 1 10 3 4 4 5 5 6 6 9 7 8 8 7 9 3 10 2 11 1 12 12 13 13 14
REMARK SMILES IDX 14 15 15 16 16 17 17 19 18 20 26 21 19 22 21 23 20 24 22 25
REMARK SMILES IDX 23 26 24 27 25 28
REMARK H PARENT 11 2 16 18 24 29
ROOT
ATOM      1  N   UNL     1      50.629  50.308  18.003  1.00  0.00    -0.371 N 
ATOM      2  H   UNL     1      50.638  51.178  17.449  1.00  0.00    +0.161 HD
ENDROOT
BRANCH   1   3
ATOM      3  C   UNL     1      49.247  49.931  17.955  1.00  0.00    +0.078 A 
ATOM      4  C   UNL     1      48.326  50.734  17.237  1.00  0.00    +0.145 A 
ATOM      5  C   UNL     1      46.974  50.405  17.246  1.00  0.00    +0.087 A 
ATOM      6  C   UNL     1      46.549  49.293  17.969  1.00  0.00    +0.127 A 
ATOM      7  C   UNL     1      48.797  48.822  18.677  1.00  0.00    +0.032 A 
ATOM      8  C   UNL     1      47.442  48.500  18.680  1.00  0.00    +0.041 A 
ATOM      9  F   UNL     1      45.245  48.982  17.981  1.00  0.00    -0.207 F 
BRANCH   4  10
ATOM     10  O   UNL     1      48.895  51.788  16.568  1.00  0.00    -0.492 OA
BRANCH  10  11
ATOM     11  C   UNL     1      48.154  52.997  16.413  1.00  0.00    +0.226 C 
ATOM     12  C   UNL     1      48.528  53.993  17.494  1.00  0.00    +0.049 C 
ENDBRANCH  10  11
ENDBRANCH   4  10
ENDBRANCH   1   3
BRANCH   1  13
ATOM     13  C   UNL     1      51.036  50.681  19.395  1.00  0.00    +0.166 C 
ATOM     14  C   UNL     1      52.374  50.042  19.753  1.00  0.00    +0.041 C 
BRANCH  13  15
ATOM     15  C   UNL     1      51.186  52.219  19.483  1.00  0.00    +0.246 C 
ATOM     16  O   UNL     1      51.685  52.871  18.568  1.00  0.00    -0.272 OA
ATOM     17  N   UNL     1      50.687  52.723  20.678  1.00  0.00    -0.324 N 
ATOM     18  H   UNL     1      50.325  52.014  21.316  1.00  0.00    +0.170 HD
BRANCH  17  19
ATOM     19  C   UNL     1      50.668  54.060  21.116  1.00  0.00    +0.042 A 
ATOM     20  C   UNL     1      51.627  54.430  22.067  1.00  0.00    +0.026 A 
ATOM     21  C   UNL     1      49.758  55.015  20.656  1.00  0.00    +0.040 A 
ATOM     22  C   UNL     1      51.682  55.739  22.548  1.00  0.00    +0.003 A 
ATOM     23  C   UNL     1      49.821  56.338  21.117  1.00  0.00    +0.041 A 
ATOM     24  C   UNL     1      50.780  56.690  22.075  1.00  0.00    +0.014 A 
BRANCH  23  25
ATOM     25  C   UNL     1      48.889  57.400  20.640  1.00  0.00    +0.251 C 
ATOM     26  O   UNL     1      48.465  58.243  21.427  1.00  0.00    -0.269 OA
ATOM     27  N   UNL     1      48.576  57.405  19.297  1.00  0.00    -0.355 N 
ATOM     28  C   UNL     1      47.702  58.413  18.751  1.00  0.00    +0.143 C 
ATOM     29  H   UNL     1      49.000  56.746  18.663  1.00  0.00    +0.163 HD
ENDBRANCH  23  25
ENDBRANCH  17  19
ENDBRANCH  13  15
ENDBRANCH   1  13
TORSDOF 7
ENDMDL
MODEL 2
REMARK VINA RESULT:    -8.485      1.946      2.695
REMARK INTER + INTRA:         -13.238
REMARK INTER:                 -12.209
REMARK INTRA:                  -1.030
REMARK UNBOUND:                -1.281
REMARK SMILES CCOc1cc(F)ccc1N[C@@H](C)C(=O)Nc1cccc(C(=O)NC)c1
REMARK SMILES IDX 11 1 10 3 4 4 5 5 6 6 9 7 8 8 7 9 3 10 2 11 1 12 12 13 13 14
REMARK SMILES IDX 14 15 15 16 16 17 17 19 18 20 26 21 19 22 21 23 20 24 22 25
REMARK SMILES IDX 23 26 24 27 25 28
REMARK H PARENT 11 2 16 18 24 29
ROOT
ATOM      1  N   UNL     1      50.159  49.644  17.928  1.00  0.00    -0.371 N 
ATOM      2  H   UNL     1      50.326  50.349  17.194  1.00  0.00    +0.161 HD
ENDROOT
BRANCH   1   3
ATOM      3  C   UNL     1      48.762  49.367  17.772  1.00  0.00    +0.078 A 
ATOM      4  C   UNL     1      48.084  49.815  16.611  1.00  0.00    +0.145 A 
ATOM      5  C   UNL     1      46.714  49.605  16.490  1.00  0.00    +0.087 A 
ATOM      6  C   UNL     1      46.030  48.962  17.520  1.00  0.00    +0.127 A 
ATOM      7  C   UNL     1      48.055  48.727  18.795  1.00  0.00    +0.032 A 
ATOM      8  C   UNL     1      46.683  48.522  18.665  1.00  0.00    +0.041 A 
ATOM      9  F   UNL     1      44.709  48.767  17.403  1.00  0.00    -0.207 F 
BRANCH   4  10
ATOM     10  O   UNL     1      48.892  50.421  15.683  1.00  0.00    -0.492 OA
BRANCH  10  11
ATOM     11  C   UNL     1      49.202  49.732  14.474  1.00  0.00    +0.226 C 
ATOM     12  C   UNL     1      50.701  49.539  14.340  1.00  0.00    +0.049 C 
ENDBRANCH  10  11
ENDBRANCH   4  10
ENDBRANCH   1   3
BRANCH   1  13
ATOM     13  C   UNL     1      50.430  50.315  19.239  1.00  0.00    +0.166 C 
ATOM     14  C   UNL     1      51.784  49.883  19.794  1.00  0.00    +0.041 C 
BRANCH  13  15
ATOM     15  C   UNL     1      50.453  51.848  19.026  1.00  0.00    +0.246 C 
ATOM     16  O   UNL     1      50.708  52.342  17.930  1.00  0.00    -0.272 OA
ATOM     17  N   UNL     1      50.147  52.540  20.192  1.00  0.00    -0.324 N 
ATOM     18  H   UNL     1      49.979  51.945  21.003  1.00  0.00    +0.170 HD
BRANCH  17  19
ATOM     19  C   UNL     1      50.089  53.932  20.386  1.00  0.00    +0.042 A 
ATOM     20  C   UNL     1      48.917  54.581  19.980  1.00  0.00    +0.026 A 
ATOM     21  C   UNL     1      51.122  54.681  20.955  1.00  0.00    +0.040 A 
ATOM     22  C   UNL     1      48.774  55.960  20.144  1.00  0.00    +0.003 A 
ATOM     23  C   UNL     1      50.978  56.063  21.145  1.00  0.00    +0.041 A 
ATOM     24  C   UNL     1      49.803  56.699  20.724  1.00  0.00    +0.014 A 
BRANCH  23  25
ATOM     25  C   UNL     1      52.041  56.903  21.769  1.00  0.00    +0.251 C 
ATOM     26  O   UNL     1      52.911  56.379  22.460  1.00  0.00    -0.269 OA
ATOM     27  N   UNL     1      52.015  58.255  21.496  1.00  0.00    -0.355 N 
ATOM     28  C   UNL     1      53.021  59.133  22.040  1.00  0.00    +0.143 C 
ATOM     29  H   UNL     1      51.333  58.643  20.863  1.00  0.00    +0.163 HD
ENDBRANCH  23  25
ENDBRANCH  17  19
ENDBRANCH  13  15
ENDBRANCH   1  13
TORSDOF 7
ENDMDL
MODEL 3
REMARK VINA RESULT:    -8.372      3.039      7.645
REMARK INTER + INTRA:         -13.079
REMARK INTER:                 -12.071
REMARK INTRA:                  -1.008
REMARK UNBOUND:                -1.281
REMARK SMILES CCOc1cc(F)ccc1N[C@@H](C)C(=O)Nc1cccc(C(=O)NC)c1
REMARK SMILES IDX 11 1 10 3 4 4 5 5 6 6 9 7 8 8 7 9 3 10 2 11 1 12 12 13 13 14
REMARK SMILES IDX 14 15 15 16 16 17 17 19 18 20 26 21 19 22 21 23 20 24 22 25
REMARK SMILES IDX 23 26 24 27 25 28
REMARK H PARENT 11 2 16 18 24 29
ROOT
ATOM      1  N   UNL     1      50.332  53.671  20.209  1.00  0.00    -0.371 N 
ATOM      2  H   UNL     1      49.553  53.008  20.341  1.00  0.00    +0.161 HD
ENDROOT
BRANCH   1   3
ATOM      3  C   UNL     1      49.683  54.939  20.368  1.00  0.00    +0.078 A 
ATOM      4  C   UNL     1      50.267  55.925  21.201  1.00  0.00    +0.145 A 
ATOM      5  C   UNL     1      49.604  57.131  21.408  1.00  0.00    +0.087 A 
ATOM      6  C   UNL     1      48.370  57.343  20.797  1.00  0.00    +0.127 A 
ATOM      7  C   UNL     1      48.442  55.172  19.768  1.00  0.00    +0.032 A 
ATOM      8  C   UNL     1      47.785  56.381  19.982  1.00  0.00    +0.041 A 
ATOM      9  F   UNL     1      47.730  58.503  21.004  1.00  0.00    -0.207 F 
BRANCH   4  10
ATOM     10  O   UNL     1      51.486  55.575  21.723  1.00  0.00    -0.492 OA
BRANCH  10  11
ATOM     11  C   UNL     1      52.480  56.582  21.907  1.00  0.00    +0.226 C 
ATOM     12  C   UNL     1      53.123  56.943  20.582  1.00  0.00    +0.049 C 
ENDBRANCH  10  11
ENDBRANCH   4  10
ENDBRANCH   1   3
BRANCH   1  13
ATOM     13  C   UNL     1      50.818  53.489  18.804  1.00  0.00    +0.166 C 
ATOM     14  C   UNL     1      52.341  53.555  18.750  1.00  0.00    +0.041 C 
BRANCH  13  15
ATOM     15  C   UNL     1      50.366  52.101  18.289  1.00  0.00    +0.246 C 
ATOM     16  O   UNL     1      51.036  51.091  18.491  1.00  0.00    -0.272 OA
ATOM     17  N   UNL     1      49.153  52.166  17.614  1.00  0.00    -0.324 N 
ATOM     18  H   UNL     1      48.761  53.105  17.541  1.00  0.00    +0.170 HD
BRANCH  17  19
ATOM     19  C   UNL     1      48.445  51.119  16.997  1.00  0.00    +0.042 A 
ATOM     20  C   UNL     1      48.852  50.750  15.709  1.00  0.00    +0.026 A 
ATOM     21  C   UNL     1      47.381  50.441  17.596  1.00  0.00    +0.040 A 
ATOM     22  C   UNL     1      48.209  49.716  15.028  1.00  0.00    +0.003 A 
ATOM     23  C   UNL     1      46.744  49.384  16.929  1.00  0.00    +0.041 A 
ATOM     24  C   UNL     1      47.156  49.035  15.637  1.00  0.00    +0.014 A 
BRANCH  23  25
ATOM     25  C   UNL     1      45.619  48.614  17.535  1.00  0.00    +0.251 C 
ATOM     26  O   UNL     1      44.529  48.576  16.971  1.00  0.00    -0.269 OA
ATOM     27  N   UNL     1      45.881  47.933  18.705  1.00  0.00    -0.355 N 
ATOM     28  C   UNL     1      44.855  47.146  19.341  1.00  0.00    +0.143 C 
ATOM     29  H   UNL     1      46.808  47.922  19.102  1.00  0.00    +0.163 HD
ENDBRANCH  23  25
ENDBRANCH  17  19
ENDBRANCH  13  15
ENDBRANCH   1  13
TORSDOF 7
ENDMDL
MODEL 4
REMARK VINA RESULT:    -8.043      1.767      2.425
REMARK INTER + INTRA:         -12.616
REMARK INTER:                 -11.679
REMARK INTRA:                  -0.937
REMARK UNBOUND:                -1.281
REMARK SMILES CCOc1cc(F)ccc1N[C@@H](C)C(=O)Nc1cccc(C(=O)NC)c1
REMARK SMILES IDX 11 1 10 3 4 4 5 5 6 6 9 7 8 8 7 9 3 10 2 11 1 12 12 13 13 14
REMARK SMILES IDX 14 15 15 16 16 17 17 19 18 20 26 21 19 22 21 23 20 24 22 25
REMARK SMILES IDX 23 26 24 27 25 28
REMARK H PARENT 11 2 16 18 24 29
ROOT
ATOM      1  N   UNL     1      50.415  50.653  18.227  1.00  0.00    -0.371 N 
ATOM      2  H   UNL     1      50.273  51.669  18.121  1.00  0.00    +0.161 HD
ENDROOT
BRANCH   1   3
ATOM      3  C   UNL     1      49.085  50.141  18.076  1.00  0.00    +0.078 A 
ATOM      4  C   UNL     1      48.162  50.825  17.247  1.00  0.00    +0.145 A 
ATOM      5  C   UNL     1      46.852  50.367  17.152  1.00  0.00    +0.087 A 
ATOM      6  C   UNL     1      46.469  49.244  17.882  1.00  0.00    +0.127 A 
ATOM      7  C   UNL     1      48.678  49.019  18.803  1.00  0.00    +0.032 A 
ATOM      8  C   UNL     1      47.365  48.567  18.703  1.00  0.00    +0.041 A 
ATOM      9  F   UNL     1      45.204  48.808  17.794  1.00  0.00    -0.207 F 
BRANCH   4  10
ATOM     10  O   UNL     1      48.688  51.905  16.584  1.00  0.00    -0.492 OA
BRANCH  10  11
ATOM     11  C   UNL     1      48.299  53.220  16.977  1.00  0.00    +0.226 C 
ATOM     12  C   UNL     1      47.426  53.856  15.912  1.00  0.00    +0.049 C 
ENDBRANCH  10  11
ENDBRANCH   4  10
ENDBRANCH   1   3
BRANCH   1  13
ATOM     13  C   UNL     1      50.920  50.433  19.620  1.00  0.00    +0.166 C 
ATOM     14  C   UNL     1      52.388  50.019  19.601  1.00  0.00    +0.041 C 
BRANCH  13  15
ATOM     15  C   UNL     1      50.792  51.752  20.418  1.00  0.00    +0.246 C 
ATOM     16  O   UNL     1      50.927  51.782  21.639  1.00  0.00    -0.272 OA
ATOM     17  N   UNL     1      50.528  52.837  19.591  1.00  0.00    -0.324 N 
ATOM     18  H   UNL     1      50.437  52.602  18.603  1.00  0.00    +0.170 HD
BRANCH  17  19
ATOM     19  C   UNL     1      50.331  54.181  19.957  1.00  0.00    +0.042 A 
ATOM     20  C   UNL     1      49.011  54.649  19.970  1.00  0.00    +0.026 A 
ATOM     21  C   UNL     1      51.367  55.053  20.303  1.00  0.00    +0.040 A 
ATOM     22  C   UNL     1      48.728  55.967  20.330  1.00  0.00    +0.003 A 
ATOM     23  C   UNL     1      51.089  56.372  20.688  1.00  0.00    +0.041 A 
ATOM     24  C   UNL     1      49.765  56.827  20.687  1.00  0.00    +0.014 A 
BRANCH  23  25
ATOM     25  C   UNL     1      52.157  57.333  21.089  1.00  0.00    +0.251 C 
ATOM     26  O   UNL     1      51.880  58.297  21.798  1.00  0.00    -0.269 OA
ATOM     27  N   UNL     1      53.441  57.060  20.666  1.00  0.00    -0.355 N 
ATOM     28  C   UNL     1      54.534  57.926  21.031  1.00  0.00    +0.143 C 
ATOM     29  H   UNL     1      53.649  56.219  20.150  1.00  0.00    +0.163 HD
ENDBRANCH  23  25
ENDBRANCH  17  19
ENDBRANCH  13  15
ENDBRANCH   1  13
TORSDOF 7
ENDMDL
MODEL 5
REMARK VINA RESULT:    -7.752      2.827      6.970
REMARK INTER + INTRA:         -12.205
REMARK INTER:                 -11.312
REMARK INTRA:                  -0.893
REMARK UNBOUND:                -1.281
REMARK SMILES CCOc1cc(F)ccc1N[C@@H](C)C(=O)Nc1cccc(C(=O)NC)c1
REMARK SMILES IDX 11 1 10 3 4 4 5 5 6 6 9 7 8 8 7 9 3 10 2 11 1 12 12 13 13 14
REMARK SMILES IDX 14 15 15 16 16 17 17 19 18 20 26 21 19 22 21 23 20 24 22 25
REMARK SMILES IDX 23 26 24 27 25 28
REMARK H PARENT 11 2 16 18 24 29
ROOT
ATOM      1  N   UNL     1      50.549  55.411  21.081  1.00  0.00    -0.371 N 
ATOM      2  H   UNL     1      50.029  54.520  21.073  1.00  0.00    +0.161 HD
ENDROOT
BRANCH   1   3
ATOM      3  C   UNL     1      49.505  56.375  20.896  1.00  0.00    +0.078 A 
ATOM      4  C   UNL     1      48.522  56.160  19.898  1.00  0.00    +0.145 A 
ATOM      5  C   UNL     1      47.547  57.127  19.673  1.00  0.00    +0.087 A 
ATOM      6  C   UNL     1      47.560  58.296  20.432  1.00  0.00    +0.127 A 
ATOM      7  C   UNL     1      49.501  57.557  21.642  1.00  0.00    +0.032 A 
ATOM      8  C   UNL     1      48.522  58.520  21.410  1.00  0.00    +0.041 A 
ATOM      9  F   UNL     1      46.624  59.229  20.209  1.00  0.00    -0.207 F 
BRANCH   4  10
ATOM     10  O   UNL     1      48.634  54.961  19.243  1.00  0.00    -0.492 OA
BRANCH  10  11
ATOM     11  C   UNL     1      48.623  54.943  17.816  1.00  0.00    +0.226 C 
ATOM     12  C   UNL     1      48.133  53.601  17.305  1.00  0.00    +0.049 C 
ENDBRANCH  10  11
ENDBRANCH   4  10
ENDBRANCH   1   3
BRANCH   1  13
ATOM     13  C   UNL     1      51.469  55.383  19.900  1.00  0.00    +0.166 C 
ATOM     14  C   UNL     1      52.837  55.949  20.271  1.00  0.00    +0.041 C 
BRANCH  13  15
ATOM     15  C   UNL     1      51.652  53.918  19.437  1.00  0.00    +0.246 C 
ATOM     16  O   UNL     1      52.482  53.611  18.584  1.00  0.00    -0.272 OA
ATOM     17  N   UNL     1      50.793  53.051  20.102  1.00  0.00    -0.324 N 
ATOM     18  H   UNL     1      50.168  53.505  20.767  1.00  0.00    +0.170 HD
BRANCH  17  19
ATOM     19  C   UNL     1      50.661  51.660  19.934  1.00  0.00    +0.042 A 
ATOM     20  C   UNL     1      51.310  50.844  20.868  1.00  0.00    +0.026 A 
ATOM     21  C   UNL     1      49.927  51.068  18.903  1.00  0.00    +0.040 A 
ATOM     22  C   UNL     1      51.224  49.454  20.778  1.00  0.00    +0.003 A 
ATOM     23  C   UNL     1      49.816  49.673  18.819  1.00  0.00    +0.041 A 
ATOM     24  C   UNL     1      50.479  48.870  19.755  1.00  0.00    +0.014 A 
BRANCH  23  25
ATOM     25  C   UNL     1      49.025  48.993  17.752  1.00  0.00    +0.251 C 
ATOM     26  O   UNL     1      48.338  49.657  16.981  1.00  0.00    -0.269 OA
ATOM     27  N   UNL     1      49.143  47.622  17.660  1.00  0.00    -0.355 N 
ATOM     28  C   UNL     1      48.432  46.892  16.641  1.00  0.00    +0.143 C 
ATOM     29  H   UNL     1      49.775  47.114  18.259  1.00  0.00    +0.163 HD
ENDBRANCH  23  25
ENDBRANCH  17  19
ENDBRANCH  13  15
ENDBRANCH   1  13
TORSDOF 7
ENDMDL
