MODEL 1
REMARK VINA RESULT:    -6.097      0.000      0.000
REMARK INTER + INTRA:          -8.738
REMARK INTER:                  -8.414
REMARK INTRA:                  -0.324
REMARK UNBOUND:                -0.324
REMARK SMILES CSCC(=O)N(CCO)C1CCCCC1
REMARK SMILES IDX 6 1 4 2 5 3 3 4 2 5 1 6 7 7 8 8 9 9 10 11 11 12 15 13 12 14
REMARK SMILES IDX 14 15 13 16
REMARK H PARENT 9 10
ROOT
ATOM      1  N   UNL     1      51.739  56.318  20.953  1.00  0.00    -0.337 N 
ENDROOT
BRANCH   1   2
ATOM      2  C   UNL     1      51.595  55.232  21.827  1.00  0.00    +0.232 C 
ATOM      3  O   UNL     1      52.017  55.296  22.989  1.00  0.00    -0.274 OA
BRANCH   2   4
ATOM      4  C   UNL     1      50.921  53.947  21.343  1.00  0.00    +0.169 C 
BRANCH   4   5
ATOM      5  S   UNL     1      52.042  52.945  20.298  1.00  0.00    -0.155 SA
ATOM      6  C   UNL     1      52.084  51.427  21.281  1.00  0.00    +0.085 C 
ENDBRANCH   4   5
ENDBRANCH   2   4
ENDBRANCH   1   2
BRANCH   1   7
ATOM      7  C   UNL     1      53.037  56.801  20.447  1.00  0.00    +0.148 C 
BRANCH   7   8
ATOM      8  C   UNL     1      53.618  57.954  21.279  1.00  0.00    +0.177 C 
BRANCH   8   9
ATOM      9  O   UNL     1      54.109  57.487  22.531  1.00  0.00    -0.395 OA
ATOM     10  H   UNL     1      55.078  57.582  22.511  1.00  0.00    +0.210 HD
ENDBRANCH   8   9
ENDBRANCH   7   8
ENDBRANCH   1   7
BRANCH   1  11
ATOM     11  C   UNL     1      50.520  57.098  20.634  1.00  0.00    +0.085 C 
ATOM     12  C   UNL     1      49.676  57.484  21.861  1.00  0.00    +0.025 C 
ATOM     13  C   UNL     1      49.670  56.366  19.581  1.00  0.00    +0.025 C 
ATOM     14  C   UNL     1      48.442  58.292  21.459  1.00  0.00    +0.002 C 
ATOM     15  C   UNL     1      48.429  57.169  19.197  1.00  0.00    +0.002 C 
ATOM     16  C   UNL     1      47.603  57.552  20.421  1.00  0.00    +0.000 C 
ENDBRANCH   1  11
TORSDOF 7
ENDMDL
MODEL 2
REMARK VINA RESULT:    -5.785      2.665      3.742
REMARK INTER + INTRA:          -8.306
REMARK INTER:                  -7.805
REMARK INTRA:                  -0.502
REMARK UNBOUND:                -0.324
REMARK SMILES CSCC(=O)N(CCO)C1CCCCC1
REMARK SMILES IDX 6 1 4 2 5 3 3 4 2 5 1 6 7 7 8 8 9 9 10 11 11 12 15 13 12 14
REMARK SMILES IDX 14 15 13 16
REMARK H PARENT 9 10
ROOT
ATOM      1  N   UNL     1      50.814  53.866  20.231  1.00  0.00    -0.337 N 
ENDROOT
BRANCH   1   2
ATOM      2  C   UNL     1      51.191  53.407  18.961  1.00  0.00    +0.232 C 
ATOM      3  O   UNL     1      52.284  53.723  18.475  1.00  0.00    -0.274 OA
BRANCH   2   4
ATOM      4  C   UNL     1      50.241  52.516  18.160  1.00  0.00    +0.169 C 
BRANCH   4   5
ATOM      5  S   UNL     1      50.947  50.850  17.882  1.00  0.00    -0.155 SA
ATOM      6  C   UNL     1      49.719  49.857  18.764  1.00  0.00    +0.085 C 
ENDBRANCH   4   5
ENDBRANCH   2   4
ENDBRANCH   1   2
BRANCH   1   7
ATOM      7  C   UNL     1      50.667  52.995  21.411  1.00  0.00    +0.148 C 
BRANCH   7   8
ATOM      8  C   UNL     1      51.864  52.055  21.622  1.00  0.00    +0.177 C 
BRANCH   8   9
ATOM      9  O   UNL     1      51.437  50.705  21.760  1.00  0.00    -0.395 OA
ATOM     10  H   UNL     1      51.301  50.544  22.711  1.00  0.00    +0.210 HD
ENDBRANCH   8   9
ENDBRANCH   7   8
ENDBRANCH   1   7
BRANCH   1  11
ATOM     11  C   UNL     1      50.413  55.288  20.347  1.00  0.00    +0.085 C 
ATOM     12  C   UNL     1      50.797  55.948  21.683  1.00  0.00    +0.025 C 
ATOM     13  C   UNL     1      48.911  55.453  20.055  1.00  0.00    +0.025 C 
ATOM     14  C   UNL     1      50.363  57.413  21.728  1.00  0.00    +0.002 C 
ATOM     15  C   UNL     1      48.480  56.916  20.121  1.00  0.00    +0.002 C 
ATOM     16  C   UNL     1      48.870  57.562  21.446  1.00  0.00    +0.000 C 
ENDBRANCH   1  11
TORSDOF 7
ENDMDL
MODEL 3
REMARK VINA RESULT:    -5.782      4.387      6.393
REMARK INTER + INTRA:          -8.303
REMARK INTER:                  -7.895
REMARK INTRA:                  -0.408
REMARK UNBOUND:                -0.324
REMARK SMILES CSCC(=O)N(CCO)C1CCCCC1
REMARK SMILES IDX 6 1 4 2 5 3 3 4 2 5 1 6 7 7 8 8 9 9 10 11 11 12 15 13 12 14
REMARK SMILES IDX 14 15 13 16
REMARK H PARENT 9 10
ROOT
ATOM      1  N   UNL     1      51.130  51.535  18.794  1.00  0.00    -0.337 N 
ENDROOT
BRANCH   1   2
ATOM      2  C   UNL     1      51.409  52.885  19.047  1.00  0.00    +0.232 C 
ATOM      3  O   UNL     1      52.235  53.498  18.359  1.00  0.00    -0.274 OA
BRANCH   2   4
ATOM      4  C   UNL     1      50.699  53.609  20.191  1.00  0.00    +0.169 C 
BRANCH   4   5
ATOM      5  S   UNL     1      51.491  53.268  21.806  1.00  0.00    -0.155 SA
ATOM      6  C   UNL     1      51.640  54.961  22.426  1.00  0.00    +0.085 C 
ENDBRANCH   4   5
ENDBRANCH   2   4
ENDBRANCH   1   2
BRANCH   1   7
ATOM      7  C   UNL     1      52.164  50.507  18.575  1.00  0.00    +0.148 C 
BRANCH   7   8
ATOM      8  C   UNL     1      52.817  50.019  19.876  1.00  0.00    +0.177 C 
BRANCH   8   9
ATOM      9  O   UNL     1      52.716  48.605  20.002  1.00  0.00    -0.395 OA
ATOM     10  H   UNL     1      51.791  48.367  19.810  1.00  0.00    +0.210 HD
ENDBRANCH   8   9
ENDBRANCH   7   8
ENDBRANCH   1   7
BRANCH   1  11
ATOM     11  C   UNL     1      49.708  51.160  18.607  1.00  0.00    +0.085 C 
ATOM     12  C   UNL     1      49.449  49.643  18.588  1.00  0.00    +0.025 C 
ATOM     13  C   UNL     1      49.130  51.840  17.353  1.00  0.00    +0.025 C 
ATOM     14  C   UNL     1      47.965  49.332  18.401  1.00  0.00    +0.002 C 
ATOM     15  C   UNL     1      47.652  51.510  17.161  1.00  0.00    +0.002 C 
ATOM     16  C   UNL     1      47.405  50.004  17.149  1.00  0.00    +0.000 C 
ENDBRANCH   1  11
TORSDOF 7
ENDMDL
MODEL 4
REMARK VINA RESULT:    -5.213      5.652      7.889
REMARK INTER + INTRA:          -7.518
REMARK INTER:                  -7.281
REMARK INTRA:                  -0.238
REMARK UNBOUND:                -0.324
REMARK SMILES CSCC(=O)N(CCO)C1CCCCC1
REMARK SMILES IDX 6 1 4 2 5 3 3 4 2 5 1 6 7 7 8 8 9 9 10 11 11 12 15 13 12 14
REMARK SMILES IDX 14 15 13 16
REMARK H PARENT 9 10
ROOT
ATOM      1  N   UNL     1      49.878  49.936  18.550  1.00  0.00    -0.337 N 
ENDROOT
BRANCH   1   2
ATOM      2  C   UNL     1      50.611  51.002  18.011  1.00  0.00    +0.232 C 
ATOM      3  O   UNL     1      51.506  50.797  17.182  1.00  0.00    -0.274 OA
BRANCH   2   4
ATOM      4  C   UNL     1      50.313  52.435  18.457  1.00  0.00    +0.169 C 
BRANCH   4   5
ATOM      5  S   UNL     1      51.786  53.237  19.191  1.00  0.00    -0.155 SA
ATOM      6  C   UNL     1      51.245  54.961  19.130  1.00  0.00    +0.085 C 
ENDBRANCH   4   5
ENDBRANCH   2   4
ENDBRANCH   1   2
BRANCH   1   7
ATOM      7  C   UNL     1      50.353  49.087  19.658  1.00  0.00    +0.148 C 
BRANCH   7   8
ATOM      8  C   UNL     1      51.691  49.557  20.248  1.00  0.00    +0.177 C 
BRANCH   8   9
ATOM      9  O   UNL     1      52.738  48.647  19.932  1.00  0.00    -0.395 OA
ATOM     10  H   UNL     1      52.338  47.761  19.870  1.00  0.00    +0.210 HD
ENDBRANCH   8   9
ENDBRANCH   7   8
ENDBRANCH   1   7
BRANCH   1  11
ATOM     11  C   UNL     1      48.613  49.570  17.870  1.00  0.00    +0.085 C 
ATOM     12  C   UNL     1      47.600  48.837  18.767  1.00  0.00    +0.025 C 
ATOM     13  C   UNL     1      48.901  48.772  16.586  1.00  0.00    +0.025 C 
ATOM     14  C   UNL     1      46.320  48.499  18.003  1.00  0.00    +0.002 C 
ATOM     15  C   UNL     1      47.617  48.421  15.838  1.00  0.00    +0.002 C 
ATOM     16  C   UNL     1      46.617  47.700  16.737  1.00  0.00    +0.000 C 
ENDBRANCH   1  11
TORSDOF 7
ENDMDL
