MODEL 1
REMARK VINA RESULT:    -9.501      0.000      0.000
REMARK INTER + INTRA:         -12.752
REMARK INTER:                 -12.278
REMARK INTRA:                  -0.474
REMARK UNBOUND:                -0.474
REMARK SMILES Cc1ccc(C)c(OCC(=O)NCc2ccc3[nH]c(=O)[nH]c3c2)c1C
REMARK SMILES IDX 10 1 11 2 12 3 9 5 8 6 7 7 2 8 3 9 24 10 4 11 5 12 1 13
REMARK SMILES IDX 25 14 6 15 13 16 14 17 15 18 23 19 16 20 22 21 17 22 21 23
REMARK SMILES IDX 18 24 19 25 20 26
REMARK H PARENT 12 4 21 27 18 28
ROOT
ATOM      1  C   UNL     1      52.038  53.223  18.789  1.00  0.00    +0.258 C 
ATOM      2  O   UNL     1      52.998  53.038  18.045  1.00  0.00    -0.271 OA
ATOM      3  N   UNL     1      51.114  52.248  19.097  1.00  0.00    -0.349 N 
ATOM      4  H   UNL     1      50.284  52.568  19.587  1.00  0.00    +0.163 HD
ENDROOT
BRANCH   1   5
ATOM      5  C   UNL     1      51.779  54.568  19.467  1.00  0.00    +0.329 C 
BRANCH   5   6
ATOM      6  O   UNL     1      50.927  54.393  20.609  1.00  0.00    -0.483 OA
BRANCH   6   7
ATOM      7  C   UNL     1      50.311  55.577  20.938  1.00  0.00    +0.126 A 
ATOM      8  C   UNL     1      48.440  57.107  20.747  1.00  0.00    -0.044 A 
ATOM      9  C   UNL     1      49.095  57.970  21.639  1.00  0.00    +0.004 A 
ATOM     10  C   UNL     1      49.070  55.905  20.359  1.00  0.00    -0.006 A 
ATOM     11  C   UNL     1      50.348  57.649  22.161  1.00  0.00    +0.007 A 
ATOM     12  C   UNL     1      50.978  56.454  21.809  1.00  0.00    -0.009 A 
ATOM     13  C   UNL     1      47.097  57.512  20.202  1.00  0.00    +0.045 C 
ATOM     14  C   UNL     1      48.409  54.968  19.382  1.00  0.00    +0.049 C 
ATOM     15  C   UNL     1      52.323  56.118  22.386  1.00  0.00    +0.048 C 
ENDBRANCH   6   7
ENDBRANCH   5   6
ENDBRANCH   1   5
BRANCH   3  16
ATOM     16  C   UNL     1      51.051  51.000  18.380  1.00  0.00    +0.151 C 
BRANCH  16  17
ATOM     17  C   UNL     1      49.620  50.669  18.032  1.00  0.00    -0.027 A 
ATOM     18  C   UNL     1      48.863  51.571  17.233  1.00  0.00    +0.008 A 
ATOM     19  C   UNL     1      49.016  49.506  18.546  1.00  0.00    +0.034 A 
ATOM     20  C   UNL     1      47.519  51.330  16.925  1.00  0.00    +0.029 A 
ATOM     21  C   UNL     1      47.695  49.297  18.230  1.00  0.00    +0.066 A 
ATOM     22  C   UNL     1      46.967  50.183  17.440  1.00  0.00    +0.066 A 
ATOM     23  N   UNL     1      46.848  48.256  18.598  1.00  0.00    -0.306 N 
ATOM     24  N   UNL     1      45.674  49.687  17.320  1.00  0.00    -0.306 N 
ATOM     25  C   UNL     1      45.583  48.485  18.037  1.00  0.00    +0.323 C 
ATOM     26  O   UNL     1      44.598  47.779  18.153  1.00  0.00    -0.248 OA
ATOM     27  H   UNL     1      47.069  47.457  19.168  1.00  0.00    +0.171 HD
ATOM     28  H   UNL     1      44.906  50.098  16.815  1.00  0.00    +0.171 HD
ENDBRANCH  16  17
ENDBRANCH   3  16
TORSDOF 5
ENDMDL
MODEL 2
REMARK VINA RESULT:    -9.443      0.621      1.952
REMARK INTER + INTRA:         -12.677
REMARK INTER:                 -12.039
REMARK INTRA:                  -0.638
REMARK UNBOUND:                -0.474
REMARK SMILES Cc1ccc(C)c(OCC(=O)NCc2ccc3[nH]c(=O)[nH]c3c2)c1C
REMARK SMILES IDX 10 1 11 2 12 3 9 5 8 6 7 7 2 8 3 9 24 10 4 11 5 12 1 13
REMARK SMILES IDX 25 14 6 15 13 16 14 17 15 18 23 19 16 20 22 21 17 22 21 23
REMARK SMILES IDX 18 24 19 25 20 26
REMARK H PARENT 12 4 21 27 18 28
ROOT
ATOM      1  C   UNL     1      52.151  53.145  18.810  1.00  0.00    +0.258 C 
ATOM      2  O   UNL     1      53.071  53.046  18.002  1.00  0.00    -0.271 OA
ATOM      3  N   UNL     1      51.353  52.087  19.189  1.00  0.00    -0.349 N 
ATOM      4  H   UNL     1      50.531  52.330  19.733  1.00  0.00    +0.163 HD
ENDROOT
BRANCH   1   5
ATOM      5  C   UNL     1      51.804  54.468  19.495  1.00  0.00    +0.329 C 
BRANCH   5   6
ATOM      6  O   UNL     1      50.827  54.253  20.523  1.00  0.00    -0.483 OA
BRANCH   6   7
ATOM      7  C   UNL     1      49.934  55.296  20.566  1.00  0.00    +0.126 A 
ATOM      8  C   UNL     1      49.222  57.430  21.471  1.00  0.00    -0.044 A 
ATOM      9  C   UNL     1      48.114  57.390  20.611  1.00  0.00    +0.004 A 
ATOM     10  C   UNL     1      50.131  56.351  21.478  1.00  0.00    -0.006 A 
ATOM     11  C   UNL     1      47.909  56.311  19.751  1.00  0.00    +0.007 A 
ATOM     12  C   UNL     1      48.810  55.244  19.725  1.00  0.00    -0.009 A 
ATOM     13  C   UNL     1      49.384  58.611  22.390  1.00  0.00    +0.045 C 
ATOM     14  C   UNL     1      51.316  56.346  22.409  1.00  0.00    +0.049 C 
ATOM     15  C   UNL     1      48.581  54.094  18.787  1.00  0.00    +0.048 C 
ENDBRANCH   6   7
ENDBRANCH   5   6
ENDBRANCH   1   5
BRANCH   3  16
ATOM     16  C   UNL     1      51.367  50.828  18.487  1.00  0.00    +0.151 C 
BRANCH  16  17
ATOM     17  C   UNL     1      49.974  50.471  18.028  1.00  0.00    -0.027 A 
ATOM     18  C   UNL     1      49.424  51.113  16.884  1.00  0.00    +0.008 A 
ATOM     19  C   UNL     1      49.199  49.554  18.763  1.00  0.00    +0.034 A 
ATOM     20  C   UNL     1      48.120  50.849  16.450  1.00  0.00    +0.029 A 
ATOM     21  C   UNL     1      47.922  49.316  18.315  1.00  0.00    +0.066 A 
ATOM     22  C   UNL     1      47.397  49.946  17.189  1.00  0.00    +0.066 A 
ATOM     23  N   UNL     1      46.940  48.481  18.835  1.00  0.00    -0.306 N 
ATOM     24  N   UNL     1      46.093  49.495  17.015  1.00  0.00    -0.306 N 
ATOM     25  C   UNL     1      45.792  48.581  18.035  1.00  0.00    +0.323 C 
ATOM     26  O   UNL     1      44.739  47.991  18.197  1.00  0.00    -0.248 OA
ATOM     27  H   UNL     1      47.004  47.890  19.647  1.00  0.00    +0.171 HD
ATOM     28  H   UNL     1      45.445  49.764  16.293  1.00  0.00    +0.171 HD
ENDBRANCH  16  17
ENDBRANCH   3  16
TORSDOF 5
ENDMDL
MODEL 3
REMARK VINA RESULT:    -9.078      1.800      2.561
REMARK INTER + INTRA:         -12.206
REMARK INTER:                 -11.989
REMARK INTRA:                  -0.217
REMARK UNBOUND:                -0.474
REMARK SMILES Cc1ccc(C)c(OCC(=O)NCc2ccc3[nH]c(=O)[nH]c3c2)c1C
REMARK SMILES IDX 10 1 11 2 12 3 9 5 8 6 7 7 2 8 3 9 24 10 4 11 5 12 1 13
REMARK SMILES IDX 25 14 6 15 13 16 14 17 15 18 23 19 16 20 22 21 17 22 21 23
REMARK SMILES IDX 18 24 19 25 20 26
REMARK H PARENT 12 4 21 27 18 28
ROOT
ATOM      1  C   UNL     1      50.333  52.194  18.060  1.00  0.00    +0.258 C 
ATOM      2  O   UNL     1      51.439  51.659  18.057  1.00  0.00    -0.271 OA
ATOM      3  N   UNL     1      49.190  51.580  17.593  1.00  0.00    -0.349 N 
ATOM      4  H   UNL     1      48.377  52.181  17.499  1.00  0.00    +0.163 HD
ENDROOT
BRANCH   1   5
ATOM      5  C   UNL     1      50.109  53.606  18.601  1.00  0.00    +0.329 C 
BRANCH   5   6
ATOM      6  O   UNL     1      49.529  53.549  19.912  1.00  0.00    -0.483 OA
BRANCH   6   7
ATOM      7  C   UNL     1      50.020  54.560  20.702  1.00  0.00    +0.126 A 
ATOM      8  C   UNL     1      49.898  56.832  21.540  1.00  0.00    -0.044 A 
ATOM      9  C   UNL     1      51.034  56.571  22.322  1.00  0.00    +0.004 A 
ATOM     10  C   UNL     1      49.400  55.824  20.688  1.00  0.00    -0.006 A 
ATOM     11  C   UNL     1      51.665  55.327  22.283  1.00  0.00    +0.007 A 
ATOM     12  C   UNL     1      51.173  54.309  21.464  1.00  0.00    -0.009 A 
ATOM     13  C   UNL     1      49.269  58.197  21.610  1.00  0.00    +0.045 C 
ATOM     14  C   UNL     1      48.199  56.078  19.814  1.00  0.00    +0.049 C 
ATOM     15  C   UNL     1      51.857  52.972  21.439  1.00  0.00    +0.048 C 
ENDBRANCH   6   7
ENDBRANCH   5   6
ENDBRANCH   1   5
BRANCH   3  16
ATOM     16  C   UNL     1      49.234  50.356  16.834  1.00  0.00    +0.151 C 
BRANCH  16  17
ATOM     17  C   UNL     1      47.925  49.615  16.963  1.00  0.00    -0.027 A 
ATOM     18  C   UNL     1      47.485  49.183  18.245  1.00  0.00    +0.008 A 
ATOM     19  C   UNL     1      47.175  49.296  15.816  1.00  0.00    +0.034 A 
ATOM     20  C   UNL     1      46.303  48.451  18.408  1.00  0.00    +0.029 A 
ATOM     21  C   UNL     1      46.021  48.574  16.005  1.00  0.00    +0.066 A 
ATOM     22  C   UNL     1      45.596  48.164  17.266  1.00  0.00    +0.066 A 
ATOM     23  N   UNL     1      45.098  48.115  15.072  1.00  0.00    -0.306 N 
ATOM     24  N   UNL     1      44.410  47.455  17.110  1.00  0.00    -0.306 N 
ATOM     25  C   UNL     1      44.086  47.415  15.746  1.00  0.00    +0.323 C 
ATOM     26  O   UNL     1      43.118  46.875  15.243  1.00  0.00    -0.248 OA
ATOM     27  H   UNL     1      45.119  48.242  14.074  1.00  0.00    +0.171 HD
ATOM     28  H   UNL     1      43.855  47.026  17.831  1.00  0.00    +0.171 HD
ENDBRANCH  16  17
ENDBRANCH   3  16
TORSDOF 5
ENDMDL
MODEL 4
REMARK VINA RESULT:    -8.793      2.749      7.029
REMARK INTER + INTRA:         -11.837
REMARK INTER:                 -11.407
REMARK INTRA:                  -0.431
REMARK UNBOUND:                -0.474
REMARK SMILES Cc1ccc(C)c(OCC(=O)NCc2ccc3[nH]c(=O)[nH]c3c2)c1C
REMARK SMILES IDX 10 1 11 2 12 3 9 5 8 6 7 7 2 8 3 9 24 10 4 11 5 12 1 13
REMARK SMILES IDX 25 14 6 15 13 16 14 17 15 18 23 19 16 20 22 21 17 22 21 23
REMARK SMILES IDX 18 24 19 25 20 26
REMARK H PARENT 12 4 21 27 18 28
ROOT
ATOM      1  C   UNL     1      51.530  50.701  20.733  1.00  0.00    +0.258 C 
ATOM      2  O   UNL     1      52.750  50.567  20.676  1.00  0.00    -0.271 OA
ATOM      3  N   UNL     1      50.910  51.789  21.308  1.00  0.00    -0.349 N 
ATOM      4  H   UNL     1      49.907  51.705  21.438  1.00  0.00    +0.163 HD
ENDROOT
BRANCH   1   5
ATOM      5  C   UNL     1      50.567  49.666  20.152  1.00  0.00    +0.329 C 
BRANCH   5   6
ATOM      6  O   UNL     1      50.634  49.674  18.718  1.00  0.00    -0.483 OA
BRANCH   6   7
ATOM      7  C   UNL     1      49.543  50.317  18.187  1.00  0.00    +0.126 A 
ATOM      8  C   UNL     1      47.222  50.308  17.486  1.00  0.00    -0.044 A 
ATOM      9  C   UNL     1      47.358  51.657  17.123  1.00  0.00    +0.004 A 
ATOM     10  C   UNL     1      48.339  49.613  17.994  1.00  0.00    -0.006 A 
ATOM     11  C   UNL     1      48.575  52.323  17.274  1.00  0.00    +0.007 A 
ATOM     12  C   UNL     1      49.686  51.660  17.798  1.00  0.00    -0.009 A 
ATOM     13  C   UNL     1      45.891  49.635  17.285  1.00  0.00    +0.045 C 
ATOM     14  C   UNL     1      48.237  48.156  18.367  1.00  0.00    +0.049 C 
ATOM     15  C   UNL     1      50.987  52.392  17.962  1.00  0.00    +0.048 C 
ENDBRANCH   6   7
ENDBRANCH   5   6
ENDBRANCH   1   5
BRANCH   3  16
ATOM     16  C   UNL     1      51.631  52.744  22.112  1.00  0.00    +0.151 C 
BRANCH  16  17
ATOM     17  C   UNL     1      51.169  54.146  21.797  1.00  0.00    -0.027 A 
ATOM     18  C   UNL     1      51.665  55.239  22.562  1.00  0.00    +0.008 A 
ATOM     19  C   UNL     1      50.206  54.367  20.796  1.00  0.00    +0.034 A 
ATOM     20  C   UNL     1      51.230  56.550  22.339  1.00  0.00    +0.029 A 
ATOM     21  C   UNL     1      49.795  55.664  20.600  1.00  0.00    +0.066 A 
ATOM     22  C   UNL     1      50.294  56.727  21.350  1.00  0.00    +0.066 A 
ATOM     23  N   UNL     1      48.864  56.174  19.701  1.00  0.00    -0.306 N 
ATOM     24  N   UNL     1      49.673  57.890  20.911  1.00  0.00    -0.306 N 
ATOM     25  C   UNL     1      48.777  57.563  19.883  1.00  0.00    +0.323 C 
ATOM     26  O   UNL     1      48.060  58.332  19.269  1.00  0.00    -0.248 OA
ATOM     27  H   UNL     1      48.324  55.666  19.021  1.00  0.00    +0.171 HD
ATOM     28  H   UNL     1      49.814  58.826  21.255  1.00  0.00    +0.171 HD
ENDBRANCH  16  17
ENDBRANCH   3  16
TORSDOF 5
ENDMDL
MODEL 5
REMARK VINA RESULT:    -8.638      1.889      3.145
REMARK INTER + INTRA:         -11.637
REMARK INTER:                 -11.368
REMARK INTRA:                  -0.269
REMARK UNBOUND:                -0.474
REMARK SMILES Cc1ccc(C)c(OCC(=O)NCc2ccc3[nH]c(=O)[nH]c3c2)c1C
REMARK SMILES IDX 10 1 11 2 12 3 9 5 8 6 7 7 2 8 3 9 24 10 4 11 5 12 1 13
REMARK SMILES IDX 25 14 6 15 13 16 14 17 15 18 23 19 16 20 22 21 17 22 21 23
REMARK SMILES IDX 18 24 19 25 20 26
REMARK H PARENT 12 4 21 27 18 28
ROOT
ATOM      1  C   UNL     1      48.822  52.794  17.410  1.00  0.00    +0.258 C 
ATOM      2  O   UNL     1      48.443  52.958  16.253  1.00  0.00    -0.271 OA
ATOM      3  N   UNL     1      49.445  51.646  17.852  1.00  0.00    -0.349 N 
ATOM      4  H   UNL     1      49.561  51.569  18.857  1.00  0.00    +0.163 HD
ENDROOT
BRANCH   1   5
ATOM      5  C   UNL     1      48.651  53.867  18.486  1.00  0.00    +0.329 C 
BRANCH   5   6
ATOM      6  O   UNL     1      49.658  54.879  18.342  1.00  0.00    -0.483 OA
BRANCH   6   7
ATOM      7  C   UNL     1      49.767  55.619  19.495  1.00  0.00    +0.126 A 
ATOM      8  C   UNL     1      50.739  55.981  21.686  1.00  0.00    -0.044 A 
ATOM      9  C   UNL     1      49.968  57.149  21.801  1.00  0.00    +0.004 A 
ATOM     10  C   UNL     1      50.613  55.181  20.531  1.00  0.00    -0.006 A 
ATOM     11  C   UNL     1      49.095  57.538  20.784  1.00  0.00    +0.007 A 
ATOM     12  C   UNL     1      48.975  56.772  19.622  1.00  0.00    -0.009 A 
ATOM     13  C   UNL     1      51.650  55.601  22.822  1.00  0.00    +0.045 C 
ATOM     14  C   UNL     1      51.404  53.907  20.386  1.00  0.00    +0.049 C 
ATOM     15  C   UNL     1      48.039  57.209  18.533  1.00  0.00    +0.048 C 
ENDBRANCH   6   7
ENDBRANCH   5   6
ENDBRANCH   1   5
BRANCH   3  16
ATOM     16  C   UNL     1      49.483  50.443  17.060  1.00  0.00    +0.151 C 
BRANCH  16  17
ATOM     17  C   UNL     1      48.175  49.700  17.175  1.00  0.00    -0.027 A 
ATOM     18  C   UNL     1      47.757  49.203  18.442  1.00  0.00    +0.008 A 
ATOM     19  C   UNL     1      47.401  49.444  16.028  1.00  0.00    +0.034 A 
ATOM     20  C   UNL     1      46.576  48.468  18.590  1.00  0.00    +0.029 A 
ATOM     21  C   UNL     1      46.248  48.717  16.202  1.00  0.00    +0.066 A 
ATOM     22  C   UNL     1      45.845  48.242  17.449  1.00  0.00    +0.066 A 
ATOM     23  N   UNL     1      45.304  48.310  15.265  1.00  0.00    -0.306 N 
ATOM     24  N   UNL     1      44.654  47.547  17.279  1.00  0.00    -0.306 N 
ATOM     25  C   UNL     1      44.303  47.579  15.921  1.00  0.00    +0.323 C 
ATOM     26  O   UNL     1      43.322  47.069  15.410  1.00  0.00    -0.248 OA
ATOM     27  H   UNL     1      45.306  48.490  14.275  1.00  0.00    +0.171 HD
ATOM     28  H   UNL     1      44.111  47.082  17.988  1.00  0.00    +0.171 HD
ENDBRANCH  16  17
ENDBRANCH   3  16
TORSDOF 5
ENDMDL
