MODEL 1
REMARK VINA RESULT:    -8.626      0.000      0.000
REMARK INTER + INTRA:         -12.458
REMARK INTER:                 -11.903
REMARK INTRA:                  -0.554
REMARK UNBOUND:                -0.554
REMARK SMILES NS(=O)(=O)Nc1cccc(NC(=O)C=C(C2CC2)C2CC2)c1
REMARK SMILES IDX 8 1 9 2 10 3 22 4 6 5 7 6 11 7 12 8 13 9 14 11 15 12 16 13
REMARK SMILES IDX 17 14 18 15 19 16 20 17 21 18 5 19 2 21 3 22 4 23 1 24
REMARK H PARENT 11 10 5 20 1 25 1 26
ROOT
ATOM      1  C   UNL     1      48.935  57.101  20.629  1.00  0.00    +0.004 A 
ATOM      2  C   UNL     1      48.908  55.757  20.248  1.00  0.00    +0.026 A 
ATOM      3  C   UNL     1      49.926  54.882  20.643  1.00  0.00    +0.043 A 
ATOM      4  C   UNL     1      50.957  55.367  21.451  1.00  0.00    +0.053 A 
ATOM      5  C   UNL     1      50.982  56.709  21.837  1.00  0.00    +0.052 A 
ATOM      6  C   UNL     1      49.979  57.581  21.416  1.00  0.00    +0.027 A 
ENDROOT
BRANCH   3   7
ATOM      7  N   UNL     1      49.847  53.547  20.192  1.00  0.00    -0.322 N 
ATOM      8  C   UNL     1      50.648  52.944  19.242  1.00  0.00    +0.248 C 
ATOM      9  O   UNL     1      51.556  53.460  18.605  1.00  0.00    -0.270 OA
ATOM     10  H   UNL     1      49.075  53.002  20.553  1.00  0.00    +0.170 HD
BRANCH   8  11
ATOM     11  C   UNL     1      50.272  51.517  19.052  1.00  0.00    +0.071 C 
ATOM     12  C   UNL     1      49.541  51.065  18.010  1.00  0.00    -0.059 C 
BRANCH  12  13
ATOM     13  C   UNL     1      49.262  49.612  17.870  1.00  0.00    +0.015 C 
ATOM     14  C   UNL     1      49.514  48.694  19.040  1.00  0.00    +0.008 C 
ATOM     15  C   UNL     1      48.107  48.998  18.623  1.00  0.00    +0.008 C 
ENDBRANCH  12  13
BRANCH  12  16
ATOM     16  C   UNL     1      48.968  51.955  16.969  1.00  0.00    +0.015 C 
ATOM     17  C   UNL     1      47.524  52.381  17.084  1.00  0.00    +0.008 C 
ATOM     18  C   UNL     1      47.936  51.432  16.000  1.00  0.00    +0.008 C 
ENDBRANCH  12  16
ENDBRANCH   8  11
ENDBRANCH   3   7
BRANCH   5  19
ATOM     19  N   UNL     1      52.086  57.194  22.608  1.00  0.00    -0.271 N 
ATOM     20  H   UNL     1      51.787  57.801  23.373  1.00  0.00    +0.181 HD
BRANCH  19  21
ATOM     21  S   UNL     1      53.291  58.028  21.776  1.00  0.00    +0.296 S 
ATOM     22  O   UNL     1      53.434  57.463  20.459  1.00  0.00    -0.189 OA
ATOM     23  O   UNL     1      53.042  59.430  21.994  1.00  0.00    -0.189 OA
BRANCH  21  24
ATOM     24  N   UNL     1      54.614  57.603  22.675  1.00  0.00    -0.211 NA
ATOM     25  H   UNL     1      54.667  58.114  23.553  1.00  0.00    +0.138 HD
ATOM     26  H   UNL     1      54.748  56.598  22.742  1.00  0.00    +0.138 HD
ENDBRANCH  21  24
ENDBRANCH  19  21
ENDBRANCH   5  19
TORSDOF 7
ENDMDL
MODEL 2
REMARK VINA RESULT:    -8.460      0.969      1.985
REMARK INTER + INTRA:         -12.229
REMARK INTER:                 -12.208
REMARK INTRA:                  -0.020
REMARK UNBOUND:                -0.554
REMARK SMILES NS(=O)(=O)Nc1cccc(NC(=O)C=C(C2CC2)C2CC2)c1
REMARK SMILES IDX 8 1 9 2 10 3 22 4 6 5 7 6 11 7 12 8 13 9 14 11 15 12 16 13
REMARK SMILES IDX 17 14 18 15 19 16 20 17 21 18 5 19 2 21 3 22 4 23 1 24
REMARK H PARENT 11 10 5 20 1 25 1 26
ROOT
ATOM      1  C   UNL     1      48.684  57.335  20.941  1.00  0.00    +0.004 A 
ATOM      2  C   UNL     1      48.544  56.131  20.246  1.00  0.00    +0.026 A 
ATOM      3  C   UNL     1      49.542  55.151  20.308  1.00  0.00    +0.043 A 
ATOM      4  C   UNL     1      50.669  55.383  21.100  1.00  0.00    +0.053 A 
ATOM      5  C   UNL     1      50.806  56.585  21.797  1.00  0.00    +0.052 A 
ATOM      6  C   UNL     1      49.822  57.568  21.709  1.00  0.00    +0.027 A 
ENDROOT
BRANCH   3   7
ATOM      7  N   UNL     1      49.345  53.974  19.553  1.00  0.00    -0.322 N 
ATOM      8  C   UNL     1      50.249  53.376  18.699  1.00  0.00    +0.248 C 
ATOM      9  O   UNL     1      51.376  53.765  18.424  1.00  0.00    -0.270 OA
ATOM     10  H   UNL     1      48.416  53.574  19.593  1.00  0.00    +0.170 HD
BRANCH   8  11
ATOM     11  C   UNL     1      49.683  52.136  18.103  1.00  0.00    +0.071 C 
ATOM     12  C   UNL     1      49.808  50.910  18.658  1.00  0.00    -0.059 C 
BRANCH  12  13
ATOM     13  C   UNL     1      49.159  49.734  18.023  1.00  0.00    +0.015 C 
ATOM     14  C   UNL     1      48.192  48.900  18.826  1.00  0.00    +0.008 C 
ATOM     15  C   UNL     1      47.680  49.772  17.719  1.00  0.00    +0.008 C 
ENDBRANCH  12  13
BRANCH  12  16
ATOM     16  C   UNL     1      50.588  50.652  19.894  1.00  0.00    +0.015 C 
ATOM     17  C   UNL     1      52.089  50.520  19.799  1.00  0.00    +0.008 C 
ATOM     18  C   UNL     1      51.256  49.316  20.111  1.00  0.00    +0.008 C 
ENDBRANCH  12  16
ENDBRANCH   8  11
ENDBRANCH   3   7
BRANCH   5  19
ATOM     19  N   UNL     1      52.004  56.825  22.546  1.00  0.00    -0.271 N 
ATOM     20  H   UNL     1      51.827  57.364  23.395  1.00  0.00    +0.181 HD
BRANCH  19  21
ATOM     21  S   UNL     1      53.266  57.596  21.741  1.00  0.00    +0.296 S 
ATOM     22  O   UNL     1      53.655  56.805  20.602  1.00  0.00    -0.189 OA
ATOM     23  O   UNL     1      52.892  58.983  21.629  1.00  0.00    -0.189 OA
BRANCH  21  24
ATOM     24  N   UNL     1      54.455  57.485  22.887  1.00  0.00    -0.211 NA
ATOM     25  H   UNL     1      54.175  56.918  23.683  1.00  0.00    +0.138 HD
ATOM     26  H   UNL     1      55.370  57.276  22.497  1.00  0.00    +0.138 HD
ENDBRANCH  21  24
ENDBRANCH  19  21
ENDBRANCH   5  19
TORSDOF 7
ENDMDL
MODEL 3
REMARK VINA RESULT:    -7.734      3.753      7.746
REMARK INTER + INTRA:         -11.227
REMARK INTER:                 -10.820
REMARK INTRA:                  -0.407
REMARK UNBOUND:                -0.554
REMARK SMILES NS(=O)(=O)Nc1cccc(NC(=O)C=C(C2CC2)C2CC2)c1
REMARK SMILES IDX 8 1 9 2 10 3 22 4 6 5 7 6 11 7 12 8 13 9 14 11 15 12 16 13
REMARK SMILES IDX 17 14 18 15 19 16 20 17 21 18 5 19 2 21 3 22 4 23 1 24
REMARK H PARENT 11 10 5 20 1 25 1 26
ROOT
ATOM      1  C   UNL     1      47.668  53.084  16.531  1.00  0.00    +0.004 A 
ATOM      2  C   UNL     1      48.414  53.910  17.376  1.00  0.00    +0.026 A 
ATOM      3  C   UNL     1      49.510  53.403  18.085  1.00  0.00    +0.043 A 
ATOM      4  C   UNL     1      49.865  52.063  17.911  1.00  0.00    +0.053 A 
ATOM      5  C   UNL     1      49.122  51.239  17.063  1.00  0.00    +0.052 A 
ATOM      6  C   UNL     1      48.015  51.743  16.382  1.00  0.00    +0.027 A 
ENDROOT
BRANCH   3   7
ATOM      7  N   UNL     1      50.194  54.289  18.944  1.00  0.00    -0.322 N 
ATOM      8  C   UNL     1      50.440  54.114  20.291  1.00  0.00    +0.248 C 
ATOM      9  O   UNL     1      50.094  53.171  20.989  1.00  0.00    -0.270 OA
ATOM     10  H   UNL     1      50.466  55.177  18.539  1.00  0.00    +0.170 HD
BRANCH   8  11
ATOM     11  C   UNL     1      51.212  55.258  20.848  1.00  0.00    +0.071 C 
ATOM     12  C   UNL     1      50.650  56.417  21.254  1.00  0.00    -0.059 C 
BRANCH  12  13
ATOM     13  C   UNL     1      51.492  57.485  21.853  1.00  0.00    +0.015 C 
ATOM     14  C   UNL     1      52.989  57.305  21.904  1.00  0.00    +0.008 C 
ATOM     15  C   UNL     1      52.393  58.310  20.966  1.00  0.00    +0.008 C 
ENDBRANCH  12  13
BRANCH  12  16
ATOM     16  C   UNL     1      49.200  56.708  21.126  1.00  0.00    +0.015 C 
ATOM     17  C   UNL     1      48.735  57.641  20.033  1.00  0.00    +0.008 C 
ATOM     18  C   UNL     1      48.662  58.077  21.464  1.00  0.00    +0.008 C 
ENDBRANCH  12  16
ENDBRANCH   8  11
ENDBRANCH   3   7
BRANCH   5  19
ATOM     19  N   UNL     1      49.467  49.853  16.958  1.00  0.00    -0.271 N 
ATOM     20  H   UNL     1      49.141  49.439  16.083  1.00  0.00    +0.181 HD
BRANCH  19  21
ATOM     21  S   UNL     1      48.941  48.839  18.196  1.00  0.00    +0.296 S 
ATOM     22  O   UNL     1      49.938  48.804  19.234  1.00  0.00    -0.189 OA
ATOM     23  O   UNL     1      47.567  49.188  18.453  1.00  0.00    -0.189 OA
BRANCH  21  24
ATOM     24  N   UNL     1      48.954  47.384  17.406  1.00  0.00    -0.211 NA
ATOM     25  H   UNL     1      49.838  47.205  16.937  1.00  0.00    +0.138 HD
ATOM     26  H   UNL     1      48.591  46.620  17.969  1.00  0.00    +0.138 HD
ENDBRANCH  21  24
ENDBRANCH  19  21
ENDBRANCH   5  19
TORSDOF 7
ENDMDL
MODEL 4
REMARK VINA RESULT:    -7.518      1.688      2.166
REMARK INTER + INTRA:         -10.929
REMARK INTER:                 -10.566
REMARK INTRA:                  -0.363
REMARK UNBOUND:                -0.554
REMARK SMILES NS(=O)(=O)Nc1cccc(NC(=O)C=C(C2CC2)C2CC2)c1
REMARK SMILES IDX 8 1 9 2 10 3 22 4 6 5 7 6 11 7 12 8 13 9 14 11 15 12 16 13
REMARK SMILES IDX 17 14 18 15 19 16 20 17 21 18 5 19 2 21 3 22 4 23 1 24
REMARK H PARENT 11 10 5 20 1 25 1 26
ROOT
ATOM      1  C   UNL     1      48.263  56.195  20.068  1.00  0.00    +0.004 A 
ATOM      2  C   UNL     1      48.408  55.140  19.164  1.00  0.00    +0.026 A 
ATOM      3  C   UNL     1      49.581  54.376  19.139  1.00  0.00    +0.043 A 
ATOM      4  C   UNL     1      50.595  54.667  20.056  1.00  0.00    +0.053 A 
ATOM      5  C   UNL     1      50.447  55.718  20.963  1.00  0.00    +0.052 A 
ATOM      6  C   UNL     1      49.288  56.492  20.962  1.00  0.00    +0.027 A 
ENDROOT
BRANCH   3   7
ATOM      7  N   UNL     1      49.668  53.348  18.176  1.00  0.00    -0.322 N 
ATOM      8  C   UNL     1      49.917  52.011  18.411  1.00  0.00    +0.248 C 
ATOM      9  O   UNL     1      50.129  51.477  19.491  1.00  0.00    -0.270 OA
ATOM     10  H   UNL     1      49.612  53.642  17.209  1.00  0.00    +0.170 HD
BRANCH   8  11
ATOM     11  C   UNL     1      49.909  51.233  17.143  1.00  0.00    +0.071 C 
ATOM     12  C   UNL     1      48.822  50.592  16.662  1.00  0.00    -0.059 C 
BRANCH  12  13
ATOM     13  C   UNL     1      48.888  49.888  15.355  1.00  0.00    +0.015 C 
ATOM     14  C   UNL     1      50.229  49.678  14.695  1.00  0.00    +0.008 C 
ATOM     15  C   UNL     1      49.497  48.508  15.281  1.00  0.00    +0.008 C 
ENDBRANCH  12  13
BRANCH  12  16
ATOM     16  C   UNL     1      47.526  50.531  17.384  1.00  0.00    +0.015 C 
ATOM     17  C   UNL     1      47.165  49.273  18.136  1.00  0.00    +0.008 C 
ATOM     18  C   UNL     1      46.417  49.634  16.890  1.00  0.00    +0.008 C 
ENDBRANCH  12  16
ENDBRANCH   8  11
ENDBRANCH   3   7
BRANCH   5  19
ATOM     19  N   UNL     1      51.530  56.038  21.844  1.00  0.00    -0.271 N 
ATOM     20  H   UNL     1      51.207  56.450  22.720  1.00  0.00    +0.181 HD
BRANCH  19  21
ATOM     21  S   UNL     1      52.727  57.060  21.244  1.00  0.00    +0.296 S 
ATOM     22  O   UNL     1      53.543  56.334  20.305  1.00  0.00    -0.189 OA
ATOM     23  O   UNL     1      52.073  58.299  20.906  1.00  0.00    -0.189 OA
BRANCH  21  24
ATOM     24  N   UNL     1      53.611  57.314  22.620  1.00  0.00    -0.211 NA
ATOM     25  H   UNL     1      54.348  58.001  22.487  1.00  0.00    +0.138 HD
ATOM     26  H   UNL     1      53.035  57.440  23.449  1.00  0.00    +0.138 HD
ENDBRANCH  21  24
ENDBRANCH  19  21
ENDBRANCH   5  19
TORSDOF 7
ENDMDL
MODEL 5
REMARK VINA RESULT:    -7.065      5.070      8.888
REMARK INTER + INTRA:         -10.304
REMARK INTER:                 -10.208
REMARK INTRA:                  -0.096
REMARK UNBOUND:                -0.554
REMARK SMILES NS(=O)(=O)Nc1cccc(NC(=O)C=C(C2CC2)C2CC2)c1
REMARK SMILES IDX 8 1 9 2 10 3 22 4 6 5 7 6 11 7 12 8 13 9 14 11 15 12 16 13
REMARK SMILES IDX 17 14 18 15 19 16 20 17 21 18 5 19 2 21 3 22 4 23 1 24
REMARK H PARENT 11 10 5 20 1 25 1 26
ROOT
ATOM      1  C   UNL     1      49.093  49.188  15.111  1.00  0.00    +0.004 A 
ATOM      2  C   UNL     1      49.618  49.995  16.124  1.00  0.00    +0.026 A 
ATOM      3  C   UNL     1      48.804  50.450  17.169  1.00  0.00    +0.043 A 
ATOM      4  C   UNL     1      47.463  50.059  17.198  1.00  0.00    +0.053 A 
ATOM      5  C   UNL     1      46.940  49.249  16.188  1.00  0.00    +0.052 A 
ATOM      6  C   UNL     1      47.750  48.823  15.136  1.00  0.00    +0.027 A 
ENDROOT
BRANCH   3   7
ATOM      7  N   UNL     1      49.397  51.287  18.137  1.00  0.00    -0.322 N 
ATOM      8  C   UNL     1      49.465  52.666  18.111  1.00  0.00    +0.248 C 
ATOM      9  O   UNL     1      49.044  53.411  17.237  1.00  0.00    -0.270 OA
ATOM     10  H   UNL     1      49.884  50.817  18.890  1.00  0.00    +0.170 HD
BRANCH   8  11
ATOM     11  C   UNL     1      50.149  53.191  19.323  1.00  0.00    +0.071 C 
ATOM     12  C   UNL     1      49.723  54.269  20.018  1.00  0.00    -0.059 C 
BRANCH  12  13
ATOM     13  C   UNL     1      50.435  54.689  21.254  1.00  0.00    +0.015 C 
ATOM     14  C   UNL     1      51.647  53.914  21.708  1.00  0.00    +0.008 C 
ATOM     15  C   UNL     1      51.814  55.296  21.150  1.00  0.00    +0.008 C 
ENDBRANCH  12  13
BRANCH  12  16
ATOM     16  C   UNL     1      48.561  55.096  19.608  1.00  0.00    +0.015 C 
ATOM     17  C   UNL     1      48.808  56.398  18.884  1.00  0.00    +0.008 C 
ATOM     18  C   UNL     1      48.284  56.416  20.287  1.00  0.00    +0.008 C 
ENDBRANCH  12  16
ENDBRANCH   8  11
ENDBRANCH   3   7
BRANCH   5  19
ATOM     19  N   UNL     1      45.546  48.920  16.207  1.00  0.00    -0.271 N 
ATOM     20  H   UNL     1      44.973  49.688  16.559  1.00  0.00    +0.181 HD
BRANCH  19  21
ATOM     21  S   UNL     1      45.097  47.547  17.073  1.00  0.00    +0.296 S 
ATOM     22  O   UNL     1      46.121  46.544  16.936  1.00  0.00    -0.189 OA
ATOM     23  O   UNL     1      44.632  48.009  18.356  1.00  0.00    -0.189 OA
BRANCH  21  24
ATOM     24  N   UNL     1      43.775  47.070  16.198  1.00  0.00    -0.211 NA
ATOM     25  H   UNL     1      43.303  46.271  16.612  1.00  0.00    +0.138 HD
ATOM     26  H   UNL     1      43.175  47.844  15.925  1.00  0.00    +0.138 HD
ENDBRANCH  21  24
ENDBRANCH  19  21
ENDBRANCH   5  19
TORSDOF 7
ENDMDL
