MODEL 1
REMARK VINA RESULT:   -10.395      0.000      0.000
REMARK INTER + INTRA:         -15.519
REMARK INTER:                 -14.649
REMARK INTRA:                  -0.870
REMARK UNBOUND:                -0.870
REMARK SMILES O=C(COc1ccc(C(=O)Nc2[nH+]cccc2[O-])cc1)Nc1cccc(C(F)(F)F)c1
REMARK SMILES IDX 3 1 2 2 21 3 1 4 22 6 24 7 25 8 23 9 26 10 31 11 27 12 28 13
REMARK SMILES IDX 29 14 30 15 4 16 5 17 6 18 20 19 7 20 19 21 8 22 9 23 10 24
REMARK SMILES IDX 11 25 12 27 17 28 13 29 16 30 14 31 15 32 18 33
REMARK H PARENT 21 5 11 26 13 34
ROOT
ATOM      1  C   UNL     1      52.423  49.487  19.998  1.00  0.00    +0.329 C 
ENDROOT
BRANCH   1   2
ATOM      2  C   UNL     1      50.897  49.333  19.922  1.00  0.00    +0.262 C 
ATOM      3  N   UNL     1      50.398  49.769  18.699  1.00  0.00    -0.323 N 
ATOM      4  O   UNL     1      50.232  48.881  20.849  1.00  0.00    -0.271 OA
ATOM      5  H   UNL     1      51.070  50.114  18.026  1.00  0.00    +0.170 HD
BRANCH   3   6
ATOM      6  C   UNL     1      49.052  49.782  18.276  1.00  0.00    +0.041 A 
ATOM      7  C   UNL     1      47.330  50.953  17.019  1.00  0.00    +0.003 A 
ATOM      8  C   UNL     1      46.406  49.963  17.344  1.00  0.00    +0.013 A 
ATOM      9  C   UNL     1      48.644  50.862  17.482  1.00  0.00    +0.026 A 
ATOM     10  C   UNL     1      46.789  48.874  18.139  1.00  0.00    +0.058 A 
ATOM     11  C   UNL     1      48.118  48.794  18.598  1.00  0.00    +0.039 A 
BRANCH  10  12
ATOM     12  C   UNL     1      45.807  47.786  18.499  1.00  0.00    +0.416 C 
ATOM     13  F   UNL     1      45.983  46.642  17.778  1.00  0.00    -0.166 F 
ATOM     14  F   UNL     1      45.894  47.416  19.806  1.00  0.00    -0.166 F 
ATOM     15  F   UNL     1      44.513  48.155  18.295  1.00  0.00    -0.166 F 
ENDBRANCH  10  12
ENDBRANCH   3   6
ENDBRANCH   1   2
BRANCH   1  16
ATOM     16  O   UNL     1      52.797  50.585  20.815  1.00  0.00    -0.484 OA
BRANCH  16  17
ATOM     17  C   UNL     1      52.199  51.789  20.569  1.00  0.00    +0.120 A 
ATOM     18  C   UNL     1      52.637  52.427  19.406  1.00  0.00    +0.047 A 
ATOM     19  C   UNL     1      51.231  52.405  21.360  1.00  0.00    +0.047 A 
ATOM     20  C   UNL     1      52.116  53.668  19.025  1.00  0.00    +0.020 A 
ATOM     21  C   UNL     1      50.705  53.648  20.985  1.00  0.00    +0.020 A 
ATOM     22  C   UNL     1      51.138  54.284  19.812  1.00  0.00    +0.064 A 
BRANCH  22  23
ATOM     23  C   UNL     1      50.543  55.607  19.473  1.00  0.00    +0.338 C 
ATOM     24  O   UNL     1      51.232  56.520  19.008  1.00  0.00    -0.241 OA
ATOM     25  N   UNL     1      49.207  55.783  19.707  1.00  0.00    -0.207 N 
ATOM     26  H   UNL     1      48.575  55.103  20.132  1.00  0.00    +0.316 HD
BRANCH  25  27
ATOM     27  C   UNL     1      48.539  56.980  19.418  1.00  0.00    +0.271 A 
ATOM     28  C   UNL     1      48.302  57.853  20.494  1.00  0.00    -0.016 A 
ATOM     29  N   UNL     1      48.146  57.277  18.178  1.00  0.00    -0.248 N 
ATOM     30  C   UNL     1      47.627  59.038  20.152  1.00  0.00    +0.004 A 
ATOM     31  C   UNL     1      47.509  58.401  17.861  1.00  0.00    +0.197 A 
ATOM     32  C   UNL     1      47.227  59.324  18.847  1.00  0.00    +0.043 A 
ATOM     33  O   UNL     1      48.667  57.593  21.689  1.00  0.00    -0.867 OA
ATOM     34  H   UNL     1      48.379  56.566  17.479  1.00  0.00    +0.311 HD
ENDBRANCH  25  27
ENDBRANCH  22  23
ENDBRANCH  16  17
ENDBRANCH   1  16
TORSDOF 7
ENDMDL
MODEL 2
REMARK VINA RESULT:   -10.090      4.223      8.435
REMARK INTER + INTRA:         -15.089
REMARK INTER:                 -13.824
REMARK INTRA:                  -1.265
REMARK UNBOUND:                -0.870
REMARK SMILES O=C(COc1ccc(C(=O)Nc2[nH+]cccc2[O-])cc1)Nc1cccc(C(F)(F)F)c1
REMARK SMILES IDX 3 1 2 2 21 3 1 4 22 6 24 7 25 8 23 9 26 10 31 11 27 12 28 13
REMARK SMILES IDX 29 14 30 15 4 16 5 17 6 18 20 19 7 20 19 21 8 22 9 23 10 24
REMARK SMILES IDX 11 25 12 27 17 28 13 29 16 30 14 31 15 32 18 33
REMARK H PARENT 21 5 11 26 13 34
ROOT
ATOM      1  C   UNL     1      52.361  51.343  21.183  1.00  0.00    +0.329 C 
ENDROOT
BRANCH   1   2
ATOM      2  C   UNL     1      51.436  52.492  21.612  1.00  0.00    +0.262 C 
ATOM      3  N   UNL     1      51.821  53.701  21.042  1.00  0.00    -0.323 N 
ATOM      4  O   UNL     1      50.486  52.327  22.371  1.00  0.00    -0.271 OA
ATOM      5  H   UNL     1      52.627  53.682  20.429  1.00  0.00    +0.170 HD
BRANCH   3   6
ATOM      6  C   UNL     1      51.215  54.964  21.212  1.00  0.00    +0.041 A 
ATOM      7  C   UNL     1      51.387  57.184  22.188  1.00  0.00    +0.003 A 
ATOM      8  C   UNL     1      50.152  57.529  21.645  1.00  0.00    +0.013 A 
ATOM      9  C   UNL     1      51.914  55.909  21.971  1.00  0.00    +0.026 A 
ATOM     10  C   UNL     1      49.432  56.599  20.884  1.00  0.00    +0.058 A 
ATOM     11  C   UNL     1      49.975  55.317  20.672  1.00  0.00    +0.039 A 
BRANCH  10  12
ATOM     12  C   UNL     1      48.094  56.952  20.280  1.00  0.00    +0.416 C 
ATOM     13  F   UNL     1      47.377  57.831  21.037  1.00  0.00    -0.166 F 
ATOM     14  F   UNL     1      48.211  57.530  19.054  1.00  0.00    -0.166 F 
ATOM     15  F   UNL     1      47.288  55.868  20.113  1.00  0.00    -0.166 F 
ENDBRANCH  10  12
ENDBRANCH   3   6
ENDBRANCH   1   2
BRANCH   1  16
ATOM     16  O   UNL     1      52.301  51.121  19.782  1.00  0.00    -0.484 OA
BRANCH  16  17
ATOM     17  C   UNL     1      51.169  50.544  19.281  1.00  0.00    +0.120 A 
ATOM     18  C   UNL     1      50.637  51.187  18.161  1.00  0.00    +0.047 A 
ATOM     19  C   UNL     1      50.527  49.414  19.787  1.00  0.00    +0.047 A 
ATOM     20  C   UNL     1      49.478  50.711  17.540  1.00  0.00    +0.020 A 
ATOM     21  C   UNL     1      49.365  48.933  19.170  1.00  0.00    +0.020 A 
ATOM     22  C   UNL     1      48.837  49.573  18.040  1.00  0.00    +0.064 A 
BRANCH  22  23
ATOM     23  C   UNL     1      47.595  49.013  17.435  1.00  0.00    +0.338 C 
ATOM     24  O   UNL     1      46.478  49.338  17.848  1.00  0.00    -0.241 OA
ATOM     25  N   UNL     1      47.734  48.115  16.413  1.00  0.00    -0.207 N 
ATOM     26  H   UNL     1      48.614  47.755  16.043  1.00  0.00    +0.316 HD
BRANCH  25  27
ATOM     27  C   UNL     1      46.638  47.533  15.764  1.00  0.00    +0.271 A 
ATOM     28  C   UNL     1      46.328  48.014  14.480  1.00  0.00    -0.016 A 
ATOM     29  N   UNL     1      45.919  46.566  16.340  1.00  0.00    -0.248 N 
ATOM     30  C   UNL     1      45.219  47.399  13.873  1.00  0.00    +0.004 A 
ATOM     31  C   UNL     1      44.870  45.988  15.759  1.00  0.00    +0.197 A 
ATOM     32  C   UNL     1      44.484  46.391  14.497  1.00  0.00    +0.043 A 
ATOM     33  O   UNL     1      46.998  48.937  13.907  1.00  0.00    -0.867 OA
ATOM     34  H   UNL     1      46.244  46.298  17.273  1.00  0.00    +0.311 HD
ENDBRANCH  25  27
ENDBRANCH  22  23
ENDBRANCH  16  17
ENDBRANCH   1  16
TORSDOF 7
ENDMDL
MODEL 3
REMARK VINA RESULT:    -9.699      4.476      8.515
REMARK INTER + INTRA:         -14.538
REMARK INTER:                 -13.358
REMARK INTRA:                  -1.181
REMARK UNBOUND:                -0.870
REMARK SMILES O=C(COc1ccc(C(=O)Nc2[nH+]cccc2[O-])cc1)Nc1cccc(C(F)(F)F)c1
REMARK SMILES IDX 3 1 2 2 21 3 1 4 22 6 24 7 25 8 23 9 26 10 31 11 27 12 28 13
REMARK SMILES IDX 29 14 30 15 4 16 5 17 6 18 20 19 7 20 19 21 8 22 9 23 10 24
REMARK SMILES IDX 11 25 12 27 17 28 13 29 16 30 14 31 15 32 18 33
REMARK H PARENT 21 5 11 26 13 34
ROOT
ATOM      1  C   UNL     1      51.113  56.416  22.504  1.00  0.00    +0.329 C 
ENDROOT
BRANCH   1   2
ATOM      2  C   UNL     1      50.692  57.241  21.278  1.00  0.00    +0.262 C 
ATOM      3  N   UNL     1      49.351  57.043  20.964  1.00  0.00    -0.323 N 
ATOM      4  O   UNL     1      51.470  57.971  20.673  1.00  0.00    -0.271 OA
ATOM      5  H   UNL     1      48.829  56.412  21.558  1.00  0.00    +0.170 HD
BRANCH   3   6
ATOM      6  C   UNL     1      48.621  57.627  19.907  1.00  0.00    +0.041 A 
ATOM      7  C   UNL     1      47.879  57.429  17.599  1.00  0.00    +0.003 A 
ATOM      8  C   UNL     1      47.209  58.645  17.700  1.00  0.00    +0.013 A 
ATOM      9  C   UNL     1      48.580  56.924  18.696  1.00  0.00    +0.026 A 
ATOM     10  C   UNL     1      47.237  59.368  18.900  1.00  0.00    +0.058 A 
ATOM     11  C   UNL     1      47.946  58.847  20.000  1.00  0.00    +0.039 A 
BRANCH  10  12
ATOM     12  C   UNL     1      46.512  60.686  19.036  1.00  0.00    +0.416 C 
ATOM     13  F   UNL     1      47.129  61.555  19.886  1.00  0.00    -0.166 F 
ATOM     14  F   UNL     1      46.401  61.344  17.850  1.00  0.00    -0.166 F 
ATOM     15  F   UNL     1      45.245  60.544  19.511  1.00  0.00    -0.166 F 
ENDBRANCH  10  12
ENDBRANCH   3   6
ENDBRANCH   1   2
BRANCH   1  16
ATOM     16  O   UNL     1      52.181  55.533  22.197  1.00  0.00    -0.484 OA
BRANCH  16  17
ATOM     17  C   UNL     1      51.956  54.575  21.250  1.00  0.00    +0.120 A 
ATOM     18  C   UNL     1      51.234  53.469  21.704  1.00  0.00    +0.047 A 
ATOM     19  C   UNL     1      52.379  54.612  19.922  1.00  0.00    +0.047 A 
ATOM     20  C   UNL     1      50.928  52.406  20.847  1.00  0.00    +0.020 A 
ATOM     21  C   UNL     1      52.078  53.551  19.059  1.00  0.00    +0.020 A 
ATOM     22  C   UNL     1      51.345  52.445  19.513  1.00  0.00    +0.064 A 
BRANCH  22  23
ATOM     23  C   UNL     1      51.062  51.348  18.546  1.00  0.00    +0.338 C 
ATOM     24  O   UNL     1      51.972  50.791  17.924  1.00  0.00    -0.241 OA
ATOM     25  N   UNL     1      49.757  50.984  18.358  1.00  0.00    -0.207 N 
ATOM     26  H   UNL     1      48.942  51.421  18.791  1.00  0.00    +0.316 HD
BRANCH  25  27
ATOM     27  C   UNL     1      49.375  49.961  17.482  1.00  0.00    +0.271 A 
ATOM     28  C   UNL     1      48.603  48.916  18.020  1.00  0.00    -0.016 A 
ATOM     29  N   UNL     1      49.730  49.976  16.196  1.00  0.00    -0.248 N 
ATOM     30  C   UNL     1      48.248  47.913  17.101  1.00  0.00    +0.004 A 
ATOM     31  C   UNL     1      49.390  49.023  15.331  1.00  0.00    +0.197 A 
ATOM     32  C   UNL     1      48.632  47.953  15.761  1.00  0.00    +0.043 A 
ATOM     33  O   UNL     1      48.251  48.877  19.246  1.00  0.00    -0.867 OA
ATOM     34  H   UNL     1      50.287  50.789  15.921  1.00  0.00    +0.311 HD
ENDBRANCH  25  27
ENDBRANCH  22  23
ENDBRANCH  16  17
ENDBRANCH   1  16
TORSDOF 7
ENDMDL
MODEL 4
REMARK VINA RESULT:    -9.396      5.395      9.263
REMARK INTER + INTRA:         -14.111
REMARK INTER:                 -13.250
REMARK INTRA:                  -0.861
REMARK UNBOUND:                -0.870
REMARK SMILES O=C(COc1ccc(C(=O)Nc2[nH+]cccc2[O-])cc1)Nc1cccc(C(F)(F)F)c1
REMARK SMILES IDX 3 1 2 2 21 3 1 4 22 6 24 7 25 8 23 9 26 10 31 11 27 12 28 13
REMARK SMILES IDX 29 14 30 15 4 16 5 17 6 18 20 19 7 20 19 21 8 22 9 23 10 24
REMARK SMILES IDX 11 25 12 27 17 28 13 29 16 30 14 31 15 32 18 33
REMARK H PARENT 21 5 11 26 13 34
ROOT
ATOM      1  C   UNL     1      51.461  51.520  21.178  1.00  0.00    +0.329 C 
ENDROOT
BRANCH   1   2
ATOM      2  C   UNL     1      51.741  52.969  20.754  1.00  0.00    +0.262 C 
ATOM      3  N   UNL     1      51.010  53.877  21.514  1.00  0.00    -0.323 N 
ATOM      4  O   UNL     1      52.518  53.255  19.848  1.00  0.00    -0.271 OA
ATOM      5  H   UNL     1      50.410  53.494  22.233  1.00  0.00    +0.170 HD
BRANCH   3   6
ATOM      6  C   UNL     1      51.007  55.284  21.406  1.00  0.00    +0.041 A 
ATOM      7  C   UNL     1      49.700  57.283  20.946  1.00  0.00    +0.003 A 
ATOM      8  C   UNL     1      50.825  58.077  21.152  1.00  0.00    +0.013 A 
ATOM      9  C   UNL     1      49.792  55.895  21.072  1.00  0.00    +0.026 A 
ATOM     10  C   UNL     1      52.053  57.489  21.484  1.00  0.00    +0.058 A 
ATOM     11  C   UNL     1      52.131  56.088  21.610  1.00  0.00    +0.039 A 
BRANCH  10  12
ATOM     12  C   UNL     1      53.284  58.330  21.719  1.00  0.00    +0.416 C 
ATOM     13  F   UNL     1      53.011  59.531  22.305  1.00  0.00    -0.166 F 
ATOM     14  F   UNL     1      54.187  57.718  22.533  1.00  0.00    -0.166 F 
ATOM     15  F   UNL     1      53.949  58.624  20.569  1.00  0.00    -0.166 F 
ENDBRANCH  10  12
ENDBRANCH   3   6
ENDBRANCH   1   2
BRANCH   1  16
ATOM     16  O   UNL     1      51.614  50.619  20.092  1.00  0.00    -0.484 OA
BRANCH  16  17
ATOM     17  C   UNL     1      50.484  50.227  19.433  1.00  0.00    +0.120 A 
ATOM     18  C   UNL     1      49.985  51.165  18.526  1.00  0.00    +0.047 A 
ATOM     19  C   UNL     1      49.814  49.015  19.595  1.00  0.00    +0.047 A 
ATOM     20  C   UNL     1      48.832  50.903  17.779  1.00  0.00    +0.020 A 
ATOM     21  C   UNL     1      48.658  48.747  18.852  1.00  0.00    +0.020 A 
ATOM     22  C   UNL     1      48.164  49.685  17.934  1.00  0.00    +0.064 A 
BRANCH  22  23
ATOM     23  C   UNL     1      46.927  49.340  17.178  1.00  0.00    +0.338 C 
ATOM     24  O   UNL     1      45.881  49.978  17.334  1.00  0.00    -0.241 OA
ATOM     25  N   UNL     1      46.983  48.281  16.313  1.00  0.00    -0.207 N 
ATOM     26  H   UNL     1      47.787  47.671  16.159  1.00  0.00    +0.316 HD
BRANCH  25  27
ATOM     27  C   UNL     1      45.886  47.873  15.544  1.00  0.00    +0.271 A 
ATOM     28  C   UNL     1      45.938  48.145  14.166  1.00  0.00    -0.016 A 
ATOM     29  N   UNL     1      44.839  47.257  16.096  1.00  0.00    -0.248 N 
ATOM     30  C   UNL     1      44.812  47.718  13.440  1.00  0.00    +0.004 A 
ATOM     31  C   UNL     1      43.776  46.855  15.402  1.00  0.00    +0.197 A 
ATOM     32  C   UNL     1      43.730  47.076  14.041  1.00  0.00    +0.043 A 
ATOM     33  O   UNL     1      46.927  48.733  13.613  1.00  0.00    -0.867 OA
ATOM     34  H   UNL     1      44.918  47.112  17.106  1.00  0.00    +0.311 HD
ENDBRANCH  25  27
ENDBRANCH  22  23
ENDBRANCH  16  17
ENDBRANCH   1  16
TORSDOF 7
ENDMDL
MODEL 5
REMARK VINA RESULT:    -9.081      2.863      4.384
REMARK INTER + INTRA:         -13.667
REMARK INTER:                 -12.700
REMARK INTRA:                  -0.968
REMARK UNBOUND:                -0.870
REMARK SMILES O=C(COc1ccc(C(=O)Nc2[nH+]cccc2[O-])cc1)Nc1cccc(C(F)(F)F)c1
REMARK SMILES IDX 3 1 2 2 21 3 1 4 22 6 24 7 25 8 23 9 26 10 31 11 27 12 28 13
REMARK SMILES IDX 29 14 30 15 4 16 5 17 6 18 20 19 7 20 19 21 8 22 9 23 10 24
REMARK SMILES IDX 11 25 12 27 17 28 13 29 16 30 14 31 15 32 18 33
REMARK H PARENT 21 5 11 26 13 34
ROOT
ATOM      1  C   UNL     1      50.168  53.548  18.501  1.00  0.00    +0.329 C 
ENDROOT
BRANCH   1   2
ATOM      2  C   UNL     1      49.710  52.100  18.270  1.00  0.00    +0.262 C 
ATOM      3  N   UNL     1      48.754  52.020  17.262  1.00  0.00    -0.323 N 
ATOM      4  O   UNL     1      50.151  51.156  18.916  1.00  0.00    -0.271 OA
ATOM      5  H   UNL     1      48.489  52.886  16.812  1.00  0.00    +0.170 HD
BRANCH   3   6
ATOM      6  C   UNL     1      48.106  50.862  16.782  1.00  0.00    +0.041 A 
ATOM      7  C   UNL     1      47.826  49.312  14.929  1.00  0.00    +0.003 A 
ATOM      8  C   UNL     1      46.908  48.574  15.672  1.00  0.00    +0.013 A 
ATOM      9  C   UNL     1      48.420  50.448  15.482  1.00  0.00    +0.026 A 
ATOM     10  C   UNL     1      46.575  48.970  16.974  1.00  0.00    +0.058 A 
ATOM     11  C   UNL     1      47.183  50.117  17.521  1.00  0.00    +0.039 A 
BRANCH  10  12
ATOM     12  C   UNL     1      45.588  48.182  17.802  1.00  0.00    +0.416 C 
ATOM     13  F   UNL     1      45.979  48.022  19.098  1.00  0.00    -0.166 F 
ATOM     14  F   UNL     1      44.363  48.773  17.855  1.00  0.00    -0.166 F 
ATOM     15  F   UNL     1      45.381  46.926  17.322  1.00  0.00    -0.166 F 
ENDBRANCH  10  12
ENDBRANCH   3   6
ENDBRANCH   1   2
BRANCH   1  16
ATOM     16  O   UNL     1      49.266  54.253  19.339  1.00  0.00    -0.484 OA
BRANCH  16  17
ATOM     17  C   UNL     1      48.764  55.435  18.873  1.00  0.00    +0.120 A 
ATOM     18  C   UNL     1      48.382  56.337  19.869  1.00  0.00    +0.047 A 
ATOM     19  C   UNL     1      48.604  55.792  17.535  1.00  0.00    +0.047 A 
ATOM     20  C   UNL     1      47.849  57.588  19.543  1.00  0.00    +0.020 A 
ATOM     21  C   UNL     1      48.070  57.043  17.201  1.00  0.00    +0.020 A 
ATOM     22  C   UNL     1      47.696  57.952  18.201  1.00  0.00    +0.064 A 
BRANCH  22  23
ATOM     23  C   UNL     1      47.129  59.263  17.779  1.00  0.00    +0.338 C 
ATOM     24  O   UNL     1      46.556  59.395  16.692  1.00  0.00    -0.241 OA
ATOM     25  N   UNL     1      47.275  60.324  18.630  1.00  0.00    -0.207 N 
ATOM     26  H   UNL     1      47.774  60.317  19.520  1.00  0.00    +0.316 HD
BRANCH  25  27
ATOM     27  C   UNL     1      46.775  61.600  18.342  1.00  0.00    +0.271 A 
ATOM     28  C   UNL     1      45.494  61.908  18.832  1.00  0.00    -0.016 A 
ATOM     29  N   UNL     1      47.481  62.482  17.632  1.00  0.00    -0.248 N 
ATOM     30  C   UNL     1      45.036  63.199  18.514  1.00  0.00    +0.004 A 
ATOM     31  C   UNL     1      47.042  63.703  17.334  1.00  0.00    +0.197 A 
ATOM     32  C   UNL     1      45.795  64.102  17.770  1.00  0.00    +0.043 A 
ATOM     33  O   UNL     1      44.797  61.083  19.513  1.00  0.00    -0.867 OA
ATOM     34  H   UNL     1      48.400  62.144  17.333  1.00  0.00    +0.311 HD
ENDBRANCH  25  27
ENDBRANCH  22  23
ENDBRANCH  16  17
ENDBRANCH   1  16
TORSDOF 7
ENDMDL
