MODEL 1
REMARK VINA RESULT:    -8.276      0.000      0.000
REMARK INTER + INTRA:         -11.920
REMARK INTER:                 -11.179
REMARK INTRA:                  -0.742
REMARK UNBOUND:                -0.742
REMARK SMILES Nc1cccc(-c2nc3cc(F)c(F)cc3n2CCCC[NH3+])c1
REMARK SMILES IDX 18 1 17 2 7 3 8 4 9 5 16 6 10 7 15 8 11 9 13 10 12 11 14 12
REMARK SMILES IDX 6 13 4 14 5 15 3 16 2 17 23 18 1 19 19 22 20 23 21 24 22 25
REMARK H PARENT 1 20 1 21 22 26 22 27 22 28
ROOT
ATOM      1  C   UNL     1      49.712  49.670  17.900  1.00  0.00    +0.124 C 
ENDROOT
BRANCH   1   2
ATOM      2  N   UNL     1      48.983  50.904  17.670  1.00  0.00    -0.324 N 
ATOM      3  C   UNL     1      47.708  51.032  17.148  1.00  0.00    +0.141 A 
ATOM      4  N   UNL     1      47.309  52.285  17.219  1.00  0.00    -0.228 NA
ATOM      5  C   UNL     1      48.369  53.004  17.700  1.00  0.00    +0.092 A 
ATOM      6  C   UNL     1      49.443  52.164  17.989  1.00  0.00    +0.072 A 
ATOM      7  C   UNL     1      48.478  54.383  17.924  1.00  0.00    +0.073 A 
ATOM      8  C   UNL     1      50.656  52.644  18.501  1.00  0.00    +0.071 A 
ATOM      9  C   UNL     1      49.680  54.872  18.435  1.00  0.00    +0.161 A 
ATOM     10  C   UNL     1      50.744  54.021  18.715  1.00  0.00    +0.161 A 
ATOM     11  F   UNL     1      49.802  56.188  18.659  1.00  0.00    -0.204 F 
ATOM     12  F   UNL     1      51.885  54.520  19.210  1.00  0.00    -0.204 F 
BRANCH   3  13
ATOM     13  C   UNL     1      46.878  49.927  16.680  1.00  0.00    +0.019 A 
ATOM     14  C   UNL     1      46.404  48.155  15.104  1.00  0.00    +0.003 A 
ATOM     15  C   UNL     1      47.150  49.274  15.474  1.00  0.00    +0.012 A 
ATOM     16  C   UNL     1      45.379  47.694  15.932  1.00  0.00    +0.025 A 
ATOM     17  C   UNL     1      45.038  48.387  17.097  1.00  0.00    +0.032 A 
ATOM     18  C   UNL     1      45.808  49.490  17.473  1.00  0.00    +0.037 A 
BRANCH  17  19
ATOM     19  N   UNL     1      44.112  47.839  18.000  1.00  0.00    -0.399 N 
ATOM     20  H   UNL     1      44.214  48.227  18.938  1.00  0.00    +0.156 HD
ATOM     21  H   UNL     1      43.150  47.960  17.686  1.00  0.00    +0.156 HD
ENDBRANCH  17  19
ENDBRANCH   3  13
ENDBRANCH   1   2
BRANCH   1  22
ATOM     22  C   UNL     1      49.353  48.961  19.218  1.00  0.00    +0.028 C 
BRANCH  22  23
ATOM     23  C   UNL     1      50.460  48.925  20.284  1.00  0.00    +0.063 C 
BRANCH  23  24
ATOM     24  C   UNL     1      51.708  49.744  19.964  1.00  0.00    +0.258 C 
BRANCH  24  25
ATOM     25  N   UNL     1      52.896  48.861  19.871  1.00  0.00    -0.358 N 
ATOM     26  H   UNL     1      53.224  48.529  20.786  1.00  0.00    +0.344 HD
ATOM     27  H   UNL     1      52.710  48.039  19.282  1.00  0.00    +0.344 HD
ATOM     28  H   UNL     1      53.677  49.368  19.431  1.00  0.00    +0.344 HD
ENDBRANCH  24  25
ENDBRANCH  23  24
ENDBRANCH  22  23
ENDBRANCH   1  22
TORSDOF 7
ENDMDL
MODEL 2
REMARK VINA RESULT:    -8.240      3.482      6.662
REMARK INTER + INTRA:         -11.871
REMARK INTER:                 -11.628
REMARK INTRA:                  -0.243
REMARK UNBOUND:                -0.742
REMARK SMILES Nc1cccc(-c2nc3cc(F)c(F)cc3n2CCCC[NH3+])c1
REMARK SMILES IDX 18 1 17 2 7 3 8 4 9 5 16 6 10 7 15 8 11 9 13 10 12 11 14 12
REMARK SMILES IDX 6 13 4 14 5 15 3 16 2 17 23 18 1 19 19 22 20 23 21 24 22 25
REMARK H PARENT 1 20 1 21 22 26 22 27 22 28
ROOT
ATOM      1  C   UNL     1      50.514  52.951  20.794  1.00  0.00    +0.124 C 
ENDROOT
BRANCH   1   2
ATOM      2  N   UNL     1      49.758  53.337  19.616  1.00  0.00    -0.324 N 
ATOM      3  C   UNL     1      49.290  54.602  19.307  1.00  0.00    +0.141 A 
ATOM      4  N   UNL     1      48.777  54.615  18.094  1.00  0.00    -0.228 NA
ATOM      5  C   UNL     1      48.817  53.324  17.641  1.00  0.00    +0.092 A 
ATOM      6  C   UNL     1      49.425  52.492  18.579  1.00  0.00    +0.072 A 
ATOM      7  C   UNL     1      48.359  52.795  16.427  1.00  0.00    +0.073 A 
ATOM      8  C   UNL     1      49.600  51.119  18.364  1.00  0.00    +0.071 A 
ATOM      9  C   UNL     1      48.528  51.429  16.201  1.00  0.00    +0.161 A 
ATOM     10  C   UNL     1      49.134  50.611  17.149  1.00  0.00    +0.161 A 
ATOM     11  F   UNL     1      48.100  50.904  15.045  1.00  0.00    -0.204 F 
ATOM     12  F   UNL     1      49.288  49.303  16.902  1.00  0.00    -0.204 F 
BRANCH   3  13
ATOM     13  C   UNL     1      49.434  55.781  20.154  1.00  0.00    +0.019 A 
ATOM     14  C   UNL     1      48.494  57.695  21.295  1.00  0.00    +0.003 A 
ATOM     15  C   UNL     1      48.355  56.636  20.398  1.00  0.00    +0.012 A 
ATOM     16  C   UNL     1      49.715  57.909  21.940  1.00  0.00    +0.025 A 
ATOM     17  C   UNL     1      50.826  57.117  21.640  1.00  0.00    +0.032 A 
ATOM     18  C   UNL     1      50.670  56.042  20.762  1.00  0.00    +0.037 A 
BRANCH  17  19
ATOM     19  N   UNL     1      52.004  57.237  22.396  1.00  0.00    -0.399 N 
ATOM     20  H   UNL     1      52.449  56.334  22.561  1.00  0.00    +0.156 HD
ATOM     21  H   UNL     1      52.676  57.872  21.965  1.00  0.00    +0.156 HD
ENDBRANCH  17  19
ENDBRANCH   3  13
ENDBRANCH   1   2
BRANCH   1  22
ATOM     22  C   UNL     1      51.982  52.586  20.511  1.00  0.00    +0.028 C 
BRANCH  22  23
ATOM     23  C   UNL     1      52.386  51.136  20.825  1.00  0.00    +0.063 C 
BRANCH  23  24
ATOM     24  C   UNL     1      52.763  50.283  19.617  1.00  0.00    +0.258 C 
BRANCH  24  25
ATOM     25  N   UNL     1      52.761  48.845  19.980  1.00  0.00    -0.358 N 
ATOM     26  H   UNL     1      53.498  48.597  20.652  1.00  0.00    +0.344 HD
ATOM     27  H   UNL     1      51.857  48.557  20.378  1.00  0.00    +0.344 HD
ATOM     28  H   UNL     1      52.909  48.270  19.138  1.00  0.00    +0.344 HD
ENDBRANCH  24  25
ENDBRANCH  23  24
ENDBRANCH  22  23
ENDBRANCH   1  22
TORSDOF 7
ENDMDL
MODEL 3
REMARK VINA RESULT:    -7.878      2.766      4.058
REMARK INTER + INTRA:         -11.383
REMARK INTER:                 -10.804
REMARK INTRA:                  -0.580
REMARK UNBOUND:                -0.742
REMARK SMILES Nc1cccc(-c2nc3cc(F)c(F)cc3n2CCCC[NH3+])c1
REMARK SMILES IDX 18 1 17 2 7 3 8 4 9 5 16 6 10 7 15 8 11 9 13 10 12 11 14 12
REMARK SMILES IDX 6 13 4 14 5 15 3 16 2 17 23 18 1 19 19 22 20 23 21 24 22 25
REMARK H PARENT 1 20 1 21 22 26 22 27 22 28
ROOT
ATOM      1  C   UNL     1      51.839  53.703  18.780  1.00  0.00    +0.124 C 
ENDROOT
BRANCH   1   2
ATOM      2  N   UNL     1      50.604  54.372  19.144  1.00  0.00    -0.324 N 
ATOM      3  C   UNL     1      49.318  53.977  18.819  1.00  0.00    +0.141 A 
ATOM      4  N   UNL     1      48.437  54.734  19.440  1.00  0.00    -0.228 NA
ATOM      5  C   UNL     1      49.150  55.700  20.098  1.00  0.00    +0.092 A 
ATOM      6  C   UNL     1      50.519  55.503  19.927  1.00  0.00    +0.072 A 
ATOM      7  C   UNL     1      48.686  56.772  20.872  1.00  0.00    +0.073 A 
ATOM      8  C   UNL     1      51.477  56.348  20.502  1.00  0.00    +0.071 A 
ATOM      9  C   UNL     1      49.631  57.620  21.450  1.00  0.00    +0.161 A 
ATOM     10  C   UNL     1      50.994  57.412  21.268  1.00  0.00    +0.161 A 
ATOM     11  F   UNL     1      49.208  58.649  22.197  1.00  0.00    -0.204 F 
ATOM     12  F   UNL     1      51.878  58.240  21.841  1.00  0.00    -0.204 F 
BRANCH   3  13
ATOM     13  C   UNL     1      48.977  52.823  17.993  1.00  0.00    +0.019 A 
ATOM     14  C   UNL     1      48.046  51.863  15.979  1.00  0.00    +0.003 A 
ATOM     15  C   UNL     1      48.266  52.970  16.799  1.00  0.00    +0.012 A 
ATOM     16  C   UNL     1      48.526  50.607  16.357  1.00  0.00    +0.025 A 
ATOM     17  C   UNL     1      49.161  50.429  17.588  1.00  0.00    +0.032 A 
ATOM     18  C   UNL     1      49.401  51.547  18.390  1.00  0.00    +0.037 A 
BRANCH  17  19
ATOM     19  N   UNL     1      49.772  49.202  17.897  1.00  0.00    -0.399 N 
ATOM     20  H   UNL     1      50.715  49.135  17.513  1.00  0.00    +0.156 HD
ATOM     21  H   UNL     1      49.803  49.028  18.901  1.00  0.00    +0.156 HD
ENDBRANCH  17  19
ENDBRANCH   3  13
ENDBRANCH   1   2
BRANCH   1  22
ATOM     22  C   UNL     1      52.401  52.775  19.870  1.00  0.00    +0.028 C 
BRANCH  22  23
ATOM     23  C   UNL     1      52.741  51.344  19.425  1.00  0.00    +0.063 C 
BRANCH  23  24
ATOM     24  C   UNL     1      52.309  50.237  20.383  1.00  0.00    +0.258 C 
BRANCH  24  25
ATOM     25  N   UNL     1      52.785  48.919  19.899  1.00  0.00    -0.358 N 
ATOM     26  H   UNL     1      53.672  48.628  20.330  1.00  0.00    +0.344 HD
ATOM     27  H   UNL     1      52.091  48.180  20.070  1.00  0.00    +0.344 HD
ATOM     28  H   UNL     1      52.937  48.952  18.880  1.00  0.00    +0.344 HD
ENDBRANCH  24  25
ENDBRANCH  23  24
ENDBRANCH  22  23
ENDBRANCH   1  22
TORSDOF 7
ENDMDL
MODEL 4
REMARK VINA RESULT:    -7.724      4.068      7.335
REMARK INTER + INTRA:         -11.174
REMARK INTER:                 -10.432
REMARK INTRA:                  -0.742
REMARK UNBOUND:                -0.742
REMARK SMILES Nc1cccc(-c2nc3cc(F)c(F)cc3n2CCCC[NH3+])c1
REMARK SMILES IDX 18 1 17 2 7 3 8 4 9 5 16 6 10 7 15 8 11 9 13 10 12 11 14 12
REMARK SMILES IDX 6 13 4 14 5 15 3 16 2 17 23 18 1 19 19 22 20 23 21 24 22 25
REMARK H PARENT 1 20 1 21 22 26 22 27 22 28
ROOT
ATOM      1  C   UNL     1      51.623  55.680  19.660  1.00  0.00    +0.124 C 
ENDROOT
BRANCH   1   2
ATOM      2  N   UNL     1      50.555  54.825  19.175  1.00  0.00    -0.324 N 
ATOM      3  C   UNL     1      49.216  55.154  19.058  1.00  0.00    +0.141 A 
ATOM      4  N   UNL     1      48.561  54.190  18.445  1.00  0.00    -0.228 NA
ATOM      5  C   UNL     1      49.457  53.175  18.248  1.00  0.00    +0.092 A 
ATOM      6  C   UNL     1      50.723  53.541  18.702  1.00  0.00    +0.072 A 
ATOM      7  C   UNL     1      49.257  51.912  17.673  1.00  0.00    +0.073 A 
ATOM      8  C   UNL     1      51.830  52.686  18.615  1.00  0.00    +0.071 A 
ATOM      9  C   UNL     1      50.351  51.052  17.580  1.00  0.00    +0.161 A 
ATOM     10  C   UNL     1      51.608  51.432  18.042  1.00  0.00    +0.161 A 
ATOM     11  F   UNL     1      50.181  49.842  17.032  1.00  0.00    -0.204 F 
ATOM     12  F   UNL     1      52.641  50.586  17.934  1.00  0.00    -0.204 F 
BRANCH   3  13
ATOM     13  C   UNL     1      48.626  56.427  19.458  1.00  0.00    +0.019 A 
ATOM     14  C   UNL     1      48.104  58.081  21.143  1.00  0.00    +0.003 A 
ATOM     15  C   UNL     1      48.578  56.815  20.801  1.00  0.00    +0.012 A 
ATOM     16  C   UNL     1      47.666  58.956  20.146  1.00  0.00    +0.025 A 
ATOM     17  C   UNL     1      47.625  58.550  18.810  1.00  0.00    +0.032 A 
ATOM     18  C   UNL     1      48.127  57.291  18.473  1.00  0.00    +0.037 A 
BRANCH  17  19
ATOM     19  N   UNL     1      47.328  59.478  17.799  1.00  0.00    -0.399 N 
ATOM     20  H   UNL     1      47.915  60.311  17.855  1.00  0.00    +0.156 HD
ATOM     21  H   UNL     1      47.406  59.072  16.867  1.00  0.00    +0.156 HD
ENDBRANCH  17  19
ENDBRANCH   3  13
ENDBRANCH   1   2
BRANCH   1  22
ATOM     22  C   UNL     1      52.044  55.401  21.113  1.00  0.00    +0.028 C 
BRANCH  22  23
ATOM     23  C   UNL     1      52.078  56.621  22.048  1.00  0.00    +0.063 C 
BRANCH  23  24
ATOM     24  C   UNL     1      53.203  57.619  21.786  1.00  0.00    +0.258 C 
BRANCH  24  25
ATOM     25  N   UNL     1      52.775  58.989  22.159  1.00  0.00    -0.358 N 
ATOM     26  H   UNL     1      53.308  59.723  21.677  1.00  0.00    +0.344 HD
ATOM     27  H   UNL     1      51.777  59.140  21.963  1.00  0.00    +0.344 HD
ATOM     28  H   UNL     1      52.902  59.133  23.171  1.00  0.00    +0.344 HD
ENDBRANCH  24  25
ENDBRANCH  23  24
ENDBRANCH  22  23
ENDBRANCH   1  22
TORSDOF 7
ENDMDL
MODEL 5
REMARK VINA RESULT:    -7.694      2.132      3.561
REMARK INTER + INTRA:         -11.134
REMARK INTER:                 -11.145
REMARK INTRA:                   0.012
REMARK UNBOUND:                -0.742
REMARK SMILES Nc1cccc(-c2nc3cc(F)c(F)cc3n2CCCC[NH3+])c1
REMARK SMILES IDX 18 1 17 2 7 3 8 4 9 5 16 6 10 7 15 8 11 9 13 10 12 11 14 12
REMARK SMILES IDX 6 13 4 14 5 15 3 16 2 17 23 18 1 19 19 22 20 23 21 24 22 25
REMARK H PARENT 1 20 1 21 22 26 22 27 22 28
ROOT
ATOM      1  C   UNL     1      48.182  51.223  16.448  1.00  0.00    +0.124 C 
ENDROOT
BRANCH   1   2
ATOM      2  N   UNL     1      48.658  50.475  17.597  1.00  0.00    -0.324 N 
ATOM      3  C   UNL     1      48.048  49.383  18.189  1.00  0.00    +0.141 A 
ATOM      4  N   UNL     1      48.832  48.868  19.113  1.00  0.00    -0.228 NA
ATOM      5  C   UNL     1      49.924  49.687  19.199  1.00  0.00    +0.092 A 
ATOM      6  C   UNL     1      49.843  50.714  18.260  1.00  0.00    +0.072 A 
ATOM      7  C   UNL     1      51.032  49.605  20.053  1.00  0.00    +0.073 A 
ATOM      8  C   UNL     1      50.837  51.693  18.129  1.00  0.00    +0.071 A 
ATOM      9  C   UNL     1      52.028  50.574  19.932  1.00  0.00    +0.161 A 
ATOM     10  C   UNL     1      51.931  51.594  18.992  1.00  0.00    +0.161 A 
ATOM     11  F   UNL     1      53.096  50.510  20.738  1.00  0.00    -0.204 F 
ATOM     12  F   UNL     1      52.906  52.508  18.896  1.00  0.00    -0.204 F 
BRANCH   3  13
ATOM     13  C   UNL     1      46.766  48.815  17.784  1.00  0.00    +0.019 A 
ATOM     14  C   UNL     1      45.123  48.298  16.088  1.00  0.00    +0.003 A 
ATOM     15  C   UNL     1      46.299  48.940  16.472  1.00  0.00    +0.012 A 
ATOM     16  C   UNL     1      44.405  47.540  17.016  1.00  0.00    +0.025 A 
ATOM     17  C   UNL     1      44.812  47.478  18.351  1.00  0.00    +0.032 A 
ATOM     18  C   UNL     1      46.006  48.102  18.721  1.00  0.00    +0.037 A 
BRANCH  17  19
ATOM     19  N   UNL     1      44.177  46.599  19.243  1.00  0.00    -0.399 N 
ATOM     20  H   UNL     1      43.162  46.703  19.229  1.00  0.00    +0.156 HD
ATOM     21  H   UNL     1      44.419  45.625  19.064  1.00  0.00    +0.156 HD
ENDBRANCH  17  19
ENDBRANCH   3  13
ENDBRANCH   1   2
BRANCH   1  22
ATOM     22  C   UNL     1      48.735  50.729  15.100  1.00  0.00    +0.028 C 
BRANCH  22  23
ATOM     23  C   UNL     1      49.624  49.476  15.157  1.00  0.00    +0.063 C 
BRANCH  23  24
ATOM     24  C   UNL     1      50.888  49.528  14.302  1.00  0.00    +0.258 C 
BRANCH  24  25
ATOM     25  N   UNL     1      52.018  50.087  15.084  1.00  0.00    -0.358 N 
ATOM     26  H   UNL     1      52.744  49.393  15.295  1.00  0.00    +0.344 HD
ATOM     27  H   UNL     1      52.462  50.875  14.594  1.00  0.00    +0.344 HD
ATOM     28  H   UNL     1      51.675  50.455  15.983  1.00  0.00    +0.344 HD
ENDBRANCH  24  25
ENDBRANCH  23  24
ENDBRANCH  22  23
ENDBRANCH   1  22
TORSDOF 7
ENDMDL
