MODEL 1
REMARK VINA RESULT:    -8.323      0.000      0.000
REMARK INTER + INTRA:         -12.949
REMARK INTER:                 -11.729
REMARK INTRA:                  -1.221
REMARK UNBOUND:                -1.221
REMARK SMILES CCNC(=O)NC(=O)CNc1ccccc1N(C)Cc1ccccc1
REMARK SMILES IDX 10 1 9 3 7 4 3 5 4 6 5 7 6 8 8 9 2 12 1 13 11 14 12 15 16 16
REMARK SMILES IDX 13 17 15 18 14 19 17 20 18 21 19 22 20 23 21 24 25 25 22 26
REMARK SMILES IDX 24 27 23 28
REMARK H PARENT 10 2 3 10 6 11
ROOT
ATOM      1  N   UNL     1      49.671  55.379  18.765  1.00  0.00    -0.374 N 
ATOM      2  H   UNL     1      49.472  55.869  17.882  1.00  0.00    +0.161 HD
ENDROOT
BRANCH   1   3
ATOM      3  C   UNL     1      48.984  54.076  18.770  1.00  0.00    +0.213 C 
BRANCH   3   4
ATOM      4  C   UNL     1      48.802  53.507  17.355  1.00  0.00    +0.247 C 
ATOM      5  N   UNL     1      49.651  50.151  16.477  1.00  0.00    -0.338 N 
ATOM      6  C   UNL     1      48.919  51.319  16.360  1.00  0.00    +0.321 C 
ATOM      7  O   UNL     1      47.942  51.422  15.634  1.00  0.00    -0.248 OA
ATOM      8  N   UNL     1      49.456  52.304  17.155  1.00  0.00    -0.277 N 
ATOM      9  O   UNL     1      48.232  54.156  16.480  1.00  0.00    -0.273 OA
ATOM     10  H   UNL     1      50.624  50.266  16.718  1.00  0.00    +0.165 HD
ATOM     11  H   UNL     1      49.857  51.905  17.991  1.00  0.00    +0.174 HD
BRANCH   5  12
ATOM     12  C   UNL     1      49.313  48.979  15.696  1.00  0.00    +0.114 C 
ATOM     13  C   UNL     1      48.568  47.939  16.513  1.00  0.00    +0.027 C 
ENDBRANCH   5  12
ENDBRANCH   3   4
ENDBRANCH   1   3
BRANCH   1  14
ATOM     14  C   UNL     1      49.331  56.287  19.797  1.00  0.00    +0.058 A 
ATOM     15  C   UNL     1      48.068  56.887  19.853  1.00  0.00    +0.028 A 
ATOM     16  C   UNL     1      50.312  56.604  20.778  1.00  0.00    +0.060 A 
ATOM     17  C   UNL     1      47.783  57.843  20.828  1.00  0.00    +0.002 A 
ATOM     18  C   UNL     1      50.009  57.582  21.734  1.00  0.00    +0.028 A 
ATOM     19  C   UNL     1      48.755  58.201  21.757  1.00  0.00    +0.002 A 
BRANCH  16  20
ATOM     20  N   UNL     1      51.550  55.928  20.734  1.00  0.00    -0.369 N 
ATOM     21  C   UNL     1      52.733  56.749  20.491  1.00  0.00    +0.144 C 
BRANCH  20  22
ATOM     22  C   UNL     1      51.689  54.864  21.754  1.00  0.00    +0.151 C 
BRANCH  22  23
ATOM     23  C   UNL     1      51.697  53.457  21.190  1.00  0.00    -0.029 A 
ATOM     24  C   UNL     1      52.344  53.178  19.978  1.00  0.00    +0.005 A 
ATOM     25  C   UNL     1      51.049  52.410  21.865  1.00  0.00    +0.005 A 
ATOM     26  C   UNL     1      52.333  51.888  19.445  1.00  0.00    +0.000 A 
ATOM     27  C   UNL     1      51.038  51.120  21.330  1.00  0.00    +0.000 A 
ATOM     28  C   UNL     1      51.678  50.861  20.120  1.00  0.00    +0.000 A 
ENDBRANCH  22  23
ENDBRANCH  20  22
ENDBRANCH  16  20
ENDBRANCH   1  14
TORSDOF 7
ENDMDL
MODEL 2
REMARK VINA RESULT:    -7.557      2.435      6.596
REMARK INTER + INTRA:         -11.870
REMARK INTER:                 -11.125
REMARK INTRA:                  -0.745
REMARK UNBOUND:                -1.221
REMARK SMILES CCNC(=O)NC(=O)CNc1ccccc1N(C)Cc1ccccc1
REMARK SMILES IDX 10 1 9 3 7 4 3 5 4 6 5 7 6 8 8 9 2 12 1 13 11 14 12 15 16 16
REMARK SMILES IDX 13 17 15 18 14 19 17 20 18 21 19 22 20 23 21 24 25 25 22 26
REMARK SMILES IDX 24 27 23 28
REMARK H PARENT 10 2 3 10 6 11
ROOT
ATOM      1  N   UNL     1      49.813  53.614  18.846  1.00  0.00    -0.374 N 
ATOM      2  H   UNL     1      50.187  53.188  17.987  1.00  0.00    +0.161 HD
ENDROOT
BRANCH   1   3
ATOM      3  C   UNL     1      49.918  55.080  18.753  1.00  0.00    +0.213 C 
BRANCH   3   4
ATOM      4  C   UNL     1      48.748  55.701  17.976  1.00  0.00    +0.247 C 
ATOM      5  N   UNL     1      47.496  58.982  18.626  1.00  0.00    -0.338 N 
ATOM      6  C   UNL     1      47.768  57.893  17.817  1.00  0.00    +0.321 C 
ATOM      7  O   UNL     1      47.597  57.904  16.608  1.00  0.00    -0.248 OA
ATOM      8  N   UNL     1      48.233  56.841  18.569  1.00  0.00    -0.277 N 
ATOM      9  O   UNL     1      48.264  55.134  16.999  1.00  0.00    -0.273 OA
ATOM     10  H   UNL     1      47.247  58.768  19.580  1.00  0.00    +0.165 HD
ATOM     11  H   UNL     1      48.769  57.177  19.357  1.00  0.00    +0.174 HD
BRANCH   5  12
ATOM     12  C   UNL     1      46.943  60.201  18.073  1.00  0.00    +0.114 C 
ATOM     13  C   UNL     1      46.752  61.276  19.128  1.00  0.00    +0.027 C 
ENDBRANCH   5  12
ENDBRANCH   3   4
ENDBRANCH   1   3
BRANCH   1  14
ATOM     14  C   UNL     1      50.496  52.989  19.918  1.00  0.00    +0.058 A 
ATOM     15  C   UNL     1      50.785  53.679  21.100  1.00  0.00    +0.028 A 
ATOM     16  C   UNL     1      50.911  51.636  19.765  1.00  0.00    +0.060 A 
ATOM     17  C   UNL     1      51.532  53.069  22.108  1.00  0.00    +0.002 A 
ATOM     18  C   UNL     1      51.679  51.053  20.782  1.00  0.00    +0.028 A 
ATOM     19  C   UNL     1      51.991  51.766  21.944  1.00  0.00    +0.002 A 
BRANCH  16  20
ATOM     20  N   UNL     1      50.542  50.948  18.590  1.00  0.00    -0.369 N 
ATOM     21  C   UNL     1      51.499  50.980  17.487  1.00  0.00    +0.144 C 
BRANCH  20  22
ATOM     22  C   UNL     1      49.873  49.650  18.838  1.00  0.00    +0.151 C 
BRANCH  22  23
ATOM     23  C   UNL     1      48.429  49.596  18.382  1.00  0.00    -0.029 A 
ATOM     24  C   UNL     1      47.587  48.555  18.800  1.00  0.00    +0.005 A 
ATOM     25  C   UNL     1      47.909  50.579  17.526  1.00  0.00    +0.005 A 
ATOM     26  C   UNL     1      46.264  48.489  18.363  1.00  0.00    +0.000 A 
ATOM     27  C   UNL     1      46.585  50.512  17.088  1.00  0.00    +0.000 A 
ATOM     28  C   UNL     1      45.764  49.467  17.506  1.00  0.00    +0.000 A 
ENDBRANCH  22  23
ENDBRANCH  20  22
ENDBRANCH  16  20
ENDBRANCH   1  14
TORSDOF 7
ENDMDL
MODEL 3
REMARK VINA RESULT:    -7.531      2.976      5.826
REMARK INTER + INTRA:         -11.834
REMARK INTER:                 -10.855
REMARK INTRA:                  -0.979
REMARK UNBOUND:                -1.221
REMARK SMILES CCNC(=O)NC(=O)CNc1ccccc1N(C)Cc1ccccc1
REMARK SMILES IDX 10 1 9 3 7 4 3 5 4 6 5 7 6 8 8 9 2 12 1 13 11 14 12 15 16 16
REMARK SMILES IDX 13 17 15 18 14 19 17 20 18 21 19 22 20 23 21 24 25 25 22 26
REMARK SMILES IDX 24 27 23 28
REMARK H PARENT 10 2 3 10 6 11
ROOT
ATOM      1  N   UNL     1      50.017  53.561  18.255  1.00  0.00    -0.374 N 
ATOM      2  H   UNL     1      50.678  54.265  17.897  1.00  0.00    +0.161 HD
ENDROOT
BRANCH   1   3
ATOM      3  C   UNL     1      48.650  54.106  18.215  1.00  0.00    +0.213 C 
BRANCH   3   4
ATOM      4  C   UNL     1      48.609  55.542  17.670  1.00  0.00    +0.247 C 
ATOM      5  N   UNL     1      46.979  56.425  14.618  1.00  0.00    -0.338 N 
ATOM      6  C   UNL     1      47.430  56.671  15.903  1.00  0.00    +0.321 C 
ATOM      7  O   UNL     1      47.167  57.694  16.515  1.00  0.00    -0.248 OA
ATOM      8  N   UNL     1      48.195  55.621  16.352  1.00  0.00    -0.277 N 
ATOM      9  O   UNL     1      49.037  56.484  18.334  1.00  0.00    -0.273 OA
ATOM     10  H   UNL     1      47.563  55.822  14.057  1.00  0.00    +0.165 HD
ATOM     11  H   UNL     1      47.861  54.749  15.968  1.00  0.00    +0.174 HD
BRANCH   5  12
ATOM     12  C   UNL     1      46.193  57.410  13.903  1.00  0.00    +0.114 C 
ATOM     13  C   UNL     1      46.497  57.419  12.416  1.00  0.00    +0.027 C 
ENDBRANCH   5  12
ENDBRANCH   3   4
ENDBRANCH   1   3
BRANCH   1  14
ATOM     14  C   UNL     1      50.515  53.170  19.521  1.00  0.00    +0.058 A 
ATOM     15  C   UNL     1      50.595  54.076  20.585  1.00  0.00    +0.028 A 
ATOM     16  C   UNL     1      50.962  51.830  19.694  1.00  0.00    +0.060 A 
ATOM     17  C   UNL     1      51.167  53.693  21.798  1.00  0.00    +0.002 A 
ATOM     18  C   UNL     1      51.553  51.475  20.914  1.00  0.00    +0.028 A 
ATOM     19  C   UNL     1      51.659  52.401  21.958  1.00  0.00    +0.002 A 
BRANCH  16  20
ATOM     20  N   UNL     1      50.803  50.924  18.625  1.00  0.00    -0.369 N 
ATOM     21  C   UNL     1      51.938  50.782  17.716  1.00  0.00    +0.144 C 
BRANCH  20  22
ATOM     22  C   UNL     1      50.101  49.675  18.996  1.00  0.00    +0.151 C 
BRANCH  22  23
ATOM     23  C   UNL     1      48.669  49.595  18.505  1.00  0.00    -0.029 A 
ATOM     24  C   UNL     1      47.800  48.609  18.996  1.00  0.00    +0.005 A 
ATOM     25  C   UNL     1      48.188  50.499  17.544  1.00  0.00    +0.005 A 
ATOM     26  C   UNL     1      46.489  48.519  18.528  1.00  0.00    +0.000 A 
ATOM     27  C   UNL     1      46.876  50.407  17.077  1.00  0.00    +0.000 A 
ATOM     28  C   UNL     1      46.028  49.417  17.568  1.00  0.00    +0.000 A 
ENDBRANCH  22  23
ENDBRANCH  20  22
ENDBRANCH  16  20
ENDBRANCH   1  14
TORSDOF 7
ENDMDL
MODEL 4
REMARK VINA RESULT:    -7.470      1.748      4.903
REMARK INTER + INTRA:         -11.748
REMARK INTER:                 -11.456
REMARK INTRA:                  -0.292
REMARK UNBOUND:                -1.221
REMARK SMILES CCNC(=O)NC(=O)CNc1ccccc1N(C)Cc1ccccc1
REMARK SMILES IDX 10 1 9 3 7 4 3 5 4 6 5 7 6 8 8 9 2 12 1 13 11 14 12 15 16 16
REMARK SMILES IDX 13 17 15 18 14 19 17 20 18 21 19 22 20 23 21 24 25 25 22 26
REMARK SMILES IDX 24 27 23 28
REMARK H PARENT 10 2 3 10 6 11
ROOT
ATOM      1  N   UNL     1      51.245  52.093  17.866  1.00  0.00    -0.374 N 
ATOM      2  H   UNL     1      50.353  52.465  17.511  1.00  0.00    +0.161 HD
ENDROOT
BRANCH   1   3
ATOM      3  C   UNL     1      51.412  50.701  17.415  1.00  0.00    +0.213 C 
BRANCH   3   4
ATOM      4  C   UNL     1      50.196  50.193  16.626  1.00  0.00    +0.247 C 
ATOM      5  N   UNL     1      47.351  48.695  18.179  1.00  0.00    -0.338 N 
ATOM      6  C   UNL     1      47.987  49.425  17.191  1.00  0.00    +0.321 C 
ATOM      7  O   UNL     1      47.385  49.998  16.296  1.00  0.00    -0.248 OA
ATOM      8  N   UNL     1      49.349  49.392  17.372  1.00  0.00    -0.277 N 
ATOM      9  O   UNL     1      50.095  50.396  15.418  1.00  0.00    -0.273 OA
ATOM     10  H   UNL     1      47.886  47.939  18.579  1.00  0.00    +0.165 HD
ATOM     11  H   UNL     1      49.576  49.350  18.355  1.00  0.00    +0.174 HD
BRANCH   5  12
ATOM     12  C   UNL     1      45.911  48.535  18.176  1.00  0.00    +0.114 C 
ATOM     13  C   UNL     1      45.458  47.391  19.067  1.00  0.00    +0.027 C 
ENDBRANCH   5  12
ENDBRANCH   3   4
ENDBRANCH   1   3
BRANCH   1  14
ATOM     14  C   UNL     1      51.229  52.318  19.264  1.00  0.00    +0.058 A 
ATOM     15  C   UNL     1      51.909  51.471  20.146  1.00  0.00    +0.028 A 
ATOM     16  C   UNL     1      50.483  53.419  19.769  1.00  0.00    +0.060 A 
ATOM     17  C   UNL     1      51.810  51.661  21.524  1.00  0.00    +0.002 A 
ATOM     18  C   UNL     1      50.381  53.576  21.158  1.00  0.00    +0.028 A 
ATOM     19  C   UNL     1      51.037  52.701  22.030  1.00  0.00    +0.002 A 
BRANCH  16  20
ATOM     20  N   UNL     1      49.869  54.294  18.849  1.00  0.00    -0.369 N 
ATOM     21  C   UNL     1      48.420  54.173  18.701  1.00  0.00    +0.144 C 
BRANCH  20  22
ATOM     22  C   UNL     1      50.411  55.672  18.877  1.00  0.00    +0.151 C 
BRANCH  22  23
ATOM     23  C   UNL     1      49.701  56.602  19.840  1.00  0.00    -0.029 A 
ATOM     24  C   UNL     1      50.325  57.010  21.029  1.00  0.00    +0.005 A 
ATOM     25  C   UNL     1      48.405  57.066  19.566  1.00  0.00    +0.005 A 
ATOM     26  C   UNL     1      49.664  57.847  21.928  1.00  0.00    +0.000 A 
ATOM     27  C   UNL     1      47.745  57.904  20.468  1.00  0.00    +0.000 A 
ATOM     28  C   UNL     1      48.375  58.292  21.649  1.00  0.00    +0.000 A 
ENDBRANCH  22  23
ENDBRANCH  20  22
ENDBRANCH  16  20
ENDBRANCH   1  14
TORSDOF 7
ENDMDL
MODEL 5
REMARK VINA RESULT:    -7.353      2.043      5.115
REMARK INTER + INTRA:         -11.582
REMARK INTER:                 -11.415
REMARK INTRA:                  -0.167
REMARK UNBOUND:                -1.221
REMARK SMILES CCNC(=O)NC(=O)CNc1ccccc1N(C)Cc1ccccc1
REMARK SMILES IDX 10 1 9 3 7 4 3 5 4 6 5 7 6 8 8 9 2 12 1 13 11 14 12 15 16 16
REMARK SMILES IDX 13 17 15 18 14 19 17 20 18 21 19 22 20 23 21 24 25 25 22 26
REMARK SMILES IDX 24 27 23 28
REMARK H PARENT 10 2 3 10 6 11
ROOT
ATOM      1  N   UNL     1      50.480  51.542  17.517  1.00  0.00    -0.374 N 
ATOM      2  H   UNL     1      49.853  52.354  17.603  1.00  0.00    +0.161 HD
ENDROOT
BRANCH   1   3
ATOM      3  C   UNL     1      49.953  50.621  16.495  1.00  0.00    +0.213 C 
BRANCH   3   4
ATOM      4  C   UNL     1      48.432  50.749  16.322  1.00  0.00    +0.247 C 
ATOM      5  N   UNL     1      46.149  48.127  17.141  1.00  0.00    -0.338 N 
ATOM      6  C   UNL     1      46.518  49.452  16.988  1.00  0.00    +0.321 C 
ATOM      7  O   UNL     1      45.804  50.384  17.326  1.00  0.00    -0.248 OA
ATOM      8  N   UNL     1      47.763  49.541  16.412  1.00  0.00    -0.277 N 
ATOM      9  O   UNL     1      47.918  51.820  16.007  1.00  0.00    -0.273 OA
ATOM     10  H   UNL     1      46.554  47.482  16.479  1.00  0.00    +0.165 HD
ATOM     11  H   UNL     1      48.343  48.765  16.698  1.00  0.00    +0.174 HD
BRANCH   5  12
ATOM     12  C   UNL     1      44.853  47.773  17.680  1.00  0.00    +0.114 C 
ATOM     13  C   UNL     1      44.934  47.333  19.131  1.00  0.00    +0.027 C 
ENDBRANCH   5  12
ENDBRANCH   3   4
ENDBRANCH   1   3
BRANCH   1  14
ATOM     14  C   UNL     1      50.630  51.027  18.827  1.00  0.00    +0.058 A 
ATOM     15  C   UNL     1      50.495  49.660  19.094  1.00  0.00    +0.028 A 
ATOM     16  C   UNL     1      50.901  51.935  19.889  1.00  0.00    +0.060 A 
ATOM     17  C   UNL     1      50.562  49.187  20.404  1.00  0.00    +0.002 A 
ATOM     18  C   UNL     1      50.942  51.439  21.199  1.00  0.00    +0.028 A 
ATOM     19  C   UNL     1      50.770  50.075  21.456  1.00  0.00    +0.002 A 
BRANCH  16  20
ATOM     20  N   UNL     1      51.101  53.296  19.577  1.00  0.00    -0.369 N 
ATOM     21  C   UNL     1      52.277  53.615  18.771  1.00  0.00    +0.144 C 
BRANCH  20  22
ATOM     22  C   UNL     1      49.857  54.024  19.235  1.00  0.00    +0.151 C 
BRANCH  22  23
ATOM     23  C   UNL     1      49.610  55.263  20.071  1.00  0.00    -0.029 A 
ATOM     24  C   UNL     1      48.442  56.020  19.898  1.00  0.00    +0.005 A 
ATOM     25  C   UNL     1      50.549  55.682  21.028  1.00  0.00    +0.005 A 
ATOM     26  C   UNL     1      48.223  57.174  20.651  1.00  0.00    +0.000 A 
ATOM     27  C   UNL     1      50.329  56.839  21.779  1.00  0.00    +0.000 A 
ATOM     28  C   UNL     1      49.167  57.584  21.589  1.00  0.00    +0.000 A 
ENDBRANCH  22  23
ENDBRANCH  20  22
ENDBRANCH  16  20
ENDBRANCH   1  14
TORSDOF 7
ENDMDL
