MODEL 1
REMARK VINA RESULT:    -7.895      0.000      0.000
REMARK INTER + INTRA:         -11.975
REMARK INTER:                 -10.664
REMARK INTRA:                  -1.311
REMARK UNBOUND:                -1.311
REMARK SMILES CC(C)NC(=O)Nc1ccccc1C(=O)N[C@H](C)Cc1ccco1
REMARK SMILES IDX 13 1 12 2 11 3 10 4 9 5 8 6 14 7 16 8 15 9 17 11 18 12 19 13
REMARK SMILES IDX 20 14 21 15 24 16 22 17 23 18 7 19 5 20 6 21 4 22 2 25 1 26
REMARK SMILES IDX 3 27
REMARK H PARENT 16 10 7 23 4 24
ROOT
ATOM      1  C   UNL     1      49.809  53.021  18.017  1.00  0.00    +0.063 A 
ATOM      2  C   UNL     1      49.844  51.657  17.674  1.00  0.00    +0.016 A 
ATOM      3  C   UNL     1      48.901  51.127  16.794  1.00  0.00    +0.001 A 
ATOM      4  C   UNL     1      47.918  51.950  16.259  1.00  0.00    +0.002 A 
ATOM      5  C   UNL     1      47.856  53.301  16.615  1.00  0.00    +0.027 A 
ATOM      6  C   UNL     1      48.782  53.852  17.508  1.00  0.00    +0.055 A 
ENDROOT
BRANCH   1   7
ATOM      7  C   UNL     1      50.856  53.584  18.928  1.00  0.00    +0.253 C 
ATOM      8  N   UNL     1      50.627  53.481  20.286  1.00  0.00    -0.349 N 
ATOM      9  O   UNL     1      51.886  54.071  18.467  1.00  0.00    -0.269 OA
ATOM     10  H   UNL     1      49.825  52.966  20.625  1.00  0.00    +0.164 HD
BRANCH   8  11
ATOM     11  C   UNL     1      51.580  53.997  21.270  1.00  0.00    +0.086 C 
ATOM     12  C   UNL     1      51.620  53.056  22.475  1.00  0.00    +0.031 C 
BRANCH  11  13
ATOM     13  C   UNL     1      51.217  55.440  21.674  1.00  0.00    +0.100 C 
BRANCH  13  14
ATOM     14  C   UNL     1      52.311  56.405  21.391  1.00  0.00    +0.105 A 
ATOM     15  C   UNL     1      52.769  57.003  20.236  1.00  0.00    +0.045 A 
ATOM     16  O   UNL     1      53.047  56.823  22.458  1.00  0.00    -0.469 OA
ATOM     17  C   UNL     1      53.849  57.833  20.620  1.00  0.00    +0.042 A 
ATOM     18  C   UNL     1      53.978  57.690  21.981  1.00  0.00    +0.195 A 
ENDBRANCH  13  14
ENDBRANCH  11  13
ENDBRANCH   8  11
ENDBRANCH   1   7
BRANCH   6  19
ATOM     19  N   UNL     1      48.723  55.208  17.915  1.00  0.00    -0.307 N 
ATOM     20  C   UNL     1      48.251  55.738  19.092  1.00  0.00    +0.319 C 
ATOM     21  O   UNL     1      47.777  55.123  20.037  1.00  0.00    -0.248 OA
ATOM     22  N   UNL     1      48.383  57.114  19.092  1.00  0.00    -0.336 N 
ATOM     23  H   UNL     1      49.222  55.855  17.308  1.00  0.00    +0.171 HD
ATOM     24  H   UNL     1      48.430  57.550  18.183  1.00  0.00    +0.165 HD
BRANCH  22  25
ATOM     25  C   UNL     1      47.869  57.923  20.188  1.00  0.00    +0.077 C 
ATOM     26  C   UNL     1      48.932  58.065  21.272  1.00  0.00    +0.030 C 
ATOM     27  C   UNL     1      47.423  59.295  19.687  1.00  0.00    +0.030 C 
ENDBRANCH  22  25
ENDBRANCH   6  19
TORSDOF 6
ENDMDL
MODEL 2
REMARK VINA RESULT:    -7.775      2.545      6.450
REMARK INTER + INTRA:         -11.813
REMARK INTER:                 -10.751
REMARK INTRA:                  -1.062
REMARK UNBOUND:                -1.311
REMARK SMILES CC(C)NC(=O)Nc1ccccc1C(=O)N[C@H](C)Cc1ccco1
REMARK SMILES IDX 13 1 12 2 11 3 10 4 9 5 8 6 14 7 16 8 15 9 17 11 18 12 19 13
REMARK SMILES IDX 20 14 21 15 24 16 22 17 23 18 7 19 5 20 6 21 4 22 2 25 1 26
REMARK SMILES IDX 3 27
REMARK H PARENT 16 10 7 23 4 24
ROOT
ATOM      1  C   UNL     1      50.694  52.257  19.495  1.00  0.00    +0.063 A 
ATOM      2  C   UNL     1      51.578  51.162  19.483  1.00  0.00    +0.016 A 
ATOM      3  C   UNL     1      52.305  50.830  20.625  1.00  0.00    +0.001 A 
ATOM      4  C   UNL     1      52.160  51.589  21.781  1.00  0.00    +0.002 A 
ATOM      5  C   UNL     1      51.306  52.696  21.796  1.00  0.00    +0.027 A 
ATOM      6  C   UNL     1      50.577  53.058  20.657  1.00  0.00    +0.055 A 
ENDROOT
BRANCH   1   7
ATOM      7  C   UNL     1      49.888  52.572  18.274  1.00  0.00    +0.253 C 
ATOM      8  N   UNL     1      49.193  51.528  17.695  1.00  0.00    -0.349 N 
ATOM      9  O   UNL     1      49.825  53.724  17.848  1.00  0.00    -0.269 OA
ATOM     10  H   UNL     1      49.174  50.623  18.146  1.00  0.00    +0.164 HD
BRANCH   8  11
ATOM     11  C   UNL     1      48.372  51.719  16.497  1.00  0.00    +0.086 C 
ATOM     12  C   UNL     1      47.174  52.605  16.841  1.00  0.00    +0.031 C 
BRANCH  11  13
ATOM     13  C   UNL     1      47.939  50.359  15.914  1.00  0.00    +0.100 C 
BRANCH  13  14
ATOM     14  C   UNL     1      47.101  49.573  16.857  1.00  0.00    +0.105 A 
ATOM     15  C   UNL     1      45.765  49.233  16.878  1.00  0.00    +0.045 A 
ATOM     16  O   UNL     1      47.733  49.053  17.947  1.00  0.00    -0.469 OA
ATOM     17  C   UNL     1      45.570  48.463  18.048  1.00  0.00    +0.042 A 
ATOM     18  C   UNL     1      46.796  48.381  18.664  1.00  0.00    +0.195 A 
ENDBRANCH  13  14
ENDBRANCH  11  13
ENDBRANCH   8  11
ENDBRANCH   1   7
BRANCH   6  19
ATOM     19  N   UNL     1      49.733  54.195  20.631  1.00  0.00    -0.307 N 
ATOM     20  C   UNL     1      50.073  55.526  20.573  1.00  0.00    +0.319 C 
ATOM     21  O   UNL     1      51.203  55.994  20.533  1.00  0.00    -0.248 OA
ATOM     22  N   UNL     1      48.940  56.317  20.557  1.00  0.00    -0.336 N 
ATOM     23  H   UNL     1      48.745  53.986  20.501  1.00  0.00    +0.171 HD
ATOM     24  H   UNL     1      48.109  55.900  20.950  1.00  0.00    +0.165 HD
BRANCH  22  25
ATOM     25  C   UNL     1      49.032  57.769  20.594  1.00  0.00    +0.077 C 
ATOM     26  C   UNL     1      47.902  58.381  19.772  1.00  0.00    +0.030 C 
ATOM     27  C   UNL     1      48.989  58.280  22.034  1.00  0.00    +0.030 C 
ENDBRANCH  22  25
ENDBRANCH   6  19
TORSDOF 6
ENDMDL
MODEL 3
REMARK VINA RESULT:    -7.429      3.254      6.053
REMARK INTER + INTRA:         -11.346
REMARK INTER:                  -9.789
REMARK INTRA:                  -1.557
REMARK UNBOUND:                -1.311
REMARK SMILES CC(C)NC(=O)Nc1ccccc1C(=O)N[C@H](C)Cc1ccco1
REMARK SMILES IDX 13 1 12 2 11 3 10 4 9 5 8 6 14 7 16 8 15 9 17 11 18 12 19 13
REMARK SMILES IDX 20 14 21 15 24 16 22 17 23 18 7 19 5 20 6 21 4 22 2 25 1 26
REMARK SMILES IDX 3 27
REMARK H PARENT 16 10 7 23 4 24
ROOT
ATOM      1  C   UNL     1      49.506  52.320  17.632  1.00  0.00    +0.063 A 
ATOM      2  C   UNL     1      49.595  53.680  17.982  1.00  0.00    +0.016 A 
ATOM      3  C   UNL     1      48.663  54.596  17.496  1.00  0.00    +0.001 A 
ATOM      4  C   UNL     1      47.643  54.164  16.657  1.00  0.00    +0.002 A 
ATOM      5  C   UNL     1      47.561  52.820  16.280  1.00  0.00    +0.027 A 
ATOM      6  C   UNL     1      48.494  51.885  16.742  1.00  0.00    +0.055 A 
ENDROOT
BRANCH   1   7
ATOM      7  C   UNL     1      50.488  51.343  18.198  1.00  0.00    +0.253 C 
ATOM      8  N   UNL     1      50.390  51.067  19.548  1.00  0.00    -0.349 N 
ATOM      9  O   UNL     1      51.307  50.789  17.468  1.00  0.00    -0.269 OA
ATOM     10  H   UNL     1      49.626  51.451  20.088  1.00  0.00    +0.164 HD
BRANCH   8  11
ATOM     11  C   UNL     1      51.298  50.128  20.211  1.00  0.00    +0.086 C 
ATOM     12  C   UNL     1      50.481  49.128  21.030  1.00  0.00    +0.031 C 
BRANCH  11  13
ATOM     13  C   UNL     1      52.325  50.886  21.077  1.00  0.00    +0.100 C 
BRANCH  13  14
ATOM     14  C   UNL     1      51.995  52.327  21.225  1.00  0.00    +0.105 A 
ATOM     15  C   UNL     1      51.329  53.050  22.192  1.00  0.00    +0.045 A 
ATOM     16  O   UNL     1      52.416  53.155  20.228  1.00  0.00    -0.469 OA
ATOM     17  C   UNL     1      51.342  54.397  21.759  1.00  0.00    +0.042 A 
ATOM     18  C   UNL     1      52.015  54.410  20.561  1.00  0.00    +0.195 A 
ENDBRANCH  13  14
ENDBRANCH  11  13
ENDBRANCH   8  11
ENDBRANCH   1   7
BRANCH   6  19
ATOM     19  N   UNL     1      48.457  50.524  16.348  1.00  0.00    -0.307 N 
ATOM     20  C   UNL     1      47.888  49.452  16.993  1.00  0.00    +0.319 C 
ATOM     21  O   UNL     1      47.289  49.468  18.059  1.00  0.00    -0.248 OA
ATOM     22  N   UNL     1      48.070  48.293  16.261  1.00  0.00    -0.336 N 
ATOM     23  H   UNL     1      48.778  50.349  15.398  1.00  0.00    +0.171 HD
ATOM     24  H   UNL     1      48.852  48.297  15.622  1.00  0.00    +0.165 HD
BRANCH  22  25
ATOM     25  C   UNL     1      47.643  47.000  16.775  1.00  0.00    +0.077 C 
ATOM     26  C   UNL     1      46.363  46.560  16.071  1.00  0.00    +0.030 C 
ATOM     27  C   UNL     1      48.742  45.954  16.598  1.00  0.00    +0.030 C 
ENDBRANCH  22  25
ENDBRANCH   6  19
TORSDOF 6
ENDMDL
MODEL 4
REMARK VINA RESULT:    -7.244      2.257      6.892
REMARK INTER + INTRA:         -11.096
REMARK INTER:                 -10.326
REMARK INTRA:                  -0.769
REMARK UNBOUND:                -1.311
REMARK SMILES CC(C)NC(=O)Nc1ccccc1C(=O)N[C@H](C)Cc1ccco1
REMARK SMILES IDX 13 1 12 2 11 3 10 4 9 5 8 6 14 7 16 8 15 9 17 11 18 12 19 13
REMARK SMILES IDX 20 14 21 15 24 16 22 17 23 18 7 19 5 20 6 21 4 22 2 25 1 26
REMARK SMILES IDX 3 27
REMARK H PARENT 16 10 7 23 4 24
ROOT
ATOM      1  C   UNL     1      49.647  56.513  20.893  1.00  0.00    +0.063 A 
ATOM      2  C   UNL     1      50.313  57.348  21.809  1.00  0.00    +0.016 A 
ATOM      3  C   UNL     1      51.434  56.886  22.498  1.00  0.00    +0.001 A 
ATOM      4  C   UNL     1      51.892  55.592  22.283  1.00  0.00    +0.002 A 
ATOM      5  C   UNL     1      51.222  54.745  21.395  1.00  0.00    +0.027 A 
ATOM      6  C   UNL     1      50.085  55.180  20.704  1.00  0.00    +0.055 A 
ENDROOT
BRANCH   1   7
ATOM      7  C   UNL     1      48.473  57.040  20.128  1.00  0.00    +0.253 C 
ATOM      8  N   UNL     1      48.668  58.195  19.396  1.00  0.00    -0.349 N 
ATOM      9  O   UNL     1      47.405  56.432  20.130  1.00  0.00    -0.269 OA
ATOM     10  H   UNL     1      49.594  58.597  19.324  1.00  0.00    +0.164 HD
BRANCH   8  11
ATOM     11  C   UNL     1      47.591  58.802  18.611  1.00  0.00    +0.086 C 
ATOM     12  C   UNL     1      47.426  58.031  17.300  1.00  0.00    +0.031 C 
BRANCH  11  13
ATOM     13  C   UNL     1      47.870  60.299  18.373  1.00  0.00    +0.100 C 
BRANCH  13  14
ATOM     14  C   UNL     1      46.774  61.170  18.871  1.00  0.00    +0.105 A 
ATOM     15  C   UNL     1      46.754  62.371  19.548  1.00  0.00    +0.045 A 
ATOM     16  O   UNL     1      45.501  60.746  18.634  1.00  0.00    -0.469 OA
ATOM     17  C   UNL     1      45.390  62.697  19.738  1.00  0.00    +0.042 A 
ATOM     18  C   UNL     1      44.668  61.679  19.164  1.00  0.00    +0.195 A 
ENDBRANCH  13  14
ENDBRANCH  11  13
ENDBRANCH   8  11
ENDBRANCH   1   7
BRANCH   6  19
ATOM     19  N   UNL     1      49.365  54.333  19.826  1.00  0.00    -0.307 N 
ATOM     20  C   UNL     1      49.836  53.543  18.805  1.00  0.00    +0.319 C 
ATOM     21  O   UNL     1      50.999  53.419  18.448  1.00  0.00    -0.248 OA
ATOM     22  N   UNL     1      48.796  52.863  18.197  1.00  0.00    -0.336 N 
ATOM     23  H   UNL     1      48.389  54.192  20.080  1.00  0.00    +0.171 HD
ATOM     24  H   UNL     1      47.883  53.282  18.296  1.00  0.00    +0.165 HD
BRANCH  22  25
ATOM     25  C   UNL     1      49.020  52.032  17.024  1.00  0.00    +0.077 C 
ATOM     26  C   UNL     1      49.253  50.586  17.449  1.00  0.00    +0.030 C 
ATOM     27  C   UNL     1      47.840  52.127  16.058  1.00  0.00    +0.030 C 
ENDBRANCH  22  25
ENDBRANCH   6  19
TORSDOF 6
ENDMDL
MODEL 5
REMARK VINA RESULT:    -7.182      2.498      4.198
REMARK INTER + INTRA:         -11.013
REMARK INTER:                  -9.796
REMARK INTRA:                  -1.217
REMARK UNBOUND:                -1.311
REMARK SMILES CC(C)NC(=O)Nc1ccccc1C(=O)N[C@H](C)Cc1ccco1
REMARK SMILES IDX 13 1 12 2 11 3 10 4 9 5 8 6 14 7 16 8 15 9 17 11 18 12 19 13
REMARK SMILES IDX 20 14 21 15 24 16 22 17 23 18 7 19 5 20 6 21 4 22 2 25 1 26
REMARK SMILES IDX 3 27
REMARK H PARENT 16 10 7 23 4 24
ROOT
ATOM      1  C   UNL     1      48.714  56.502  18.909  1.00  0.00    +0.063 A 
ATOM      2  C   UNL     1      48.847  55.172  18.470  1.00  0.00    +0.016 A 
ATOM      3  C   UNL     1      48.457  54.812  17.180  1.00  0.00    +0.001 A 
ATOM      4  C   UNL     1      47.929  55.773  16.327  1.00  0.00    +0.002 A 
ATOM      5  C   UNL     1      47.766  57.092  16.761  1.00  0.00    +0.027 A 
ATOM      6  C   UNL     1      48.135  57.473  18.056  1.00  0.00    +0.055 A 
ENDROOT
BRANCH   1   7
ATOM      7  C   UNL     1      49.179  56.880  20.281  1.00  0.00    +0.253 C 
ATOM      8  N   UNL     1      50.467  56.521  20.627  1.00  0.00    -0.349 N 
ATOM      9  O   UNL     1      48.447  57.519  21.033  1.00  0.00    -0.269 OA
ATOM     10  H   UNL     1      51.077  56.103  19.937  1.00  0.00    +0.164 HD
BRANCH   8  11
ATOM     11  C   UNL     1      51.028  56.837  21.943  1.00  0.00    +0.086 C 
ATOM     12  C   UNL     1      52.092  57.925  21.789  1.00  0.00    +0.031 C 
BRANCH  11  13
ATOM     13  C   UNL     1      51.590  55.567  22.612  1.00  0.00    +0.100 C 
BRANCH  13  14
ATOM     14  C   UNL     1      51.566  54.386  21.710  1.00  0.00    +0.105 A 
ATOM     15  C   UNL     1      50.884  53.188  21.738  1.00  0.00    +0.045 A 
ATOM     16  O   UNL     1      52.361  54.446  20.605  1.00  0.00    -0.469 OA
ATOM     17  C   UNL     1      51.288  52.474  20.585  1.00  0.00    +0.042 A 
ATOM     18  C   UNL     1      52.187  53.282  19.928  1.00  0.00    +0.195 A 
ENDBRANCH  13  14
ENDBRANCH  11  13
ENDBRANCH   8  11
ENDBRANCH   1   7
BRANCH   6  19
ATOM     19  N   UNL     1      47.948  58.792  18.537  1.00  0.00    -0.307 N 
ATOM     20  C   UNL     1      47.043  59.743  18.127  1.00  0.00    +0.319 C 
ATOM     21  O   UNL     1      46.205  59.627  17.244  1.00  0.00    -0.248 OA
ATOM     22  N   UNL     1      47.188  60.902  18.867  1.00  0.00    -0.336 N 
ATOM     23  H   UNL     1      48.463  59.010  19.388  1.00  0.00    +0.171 HD
ATOM     24  H   UNL     1      48.094  61.040  19.291  1.00  0.00    +0.165 HD
BRANCH  22  25
ATOM     25  C   UNL     1      46.410  62.094  18.563  1.00  0.00    +0.077 C 
ATOM     26  C   UNL     1      46.006  62.793  19.857  1.00  0.00    +0.030 C 
ATOM     27  C   UNL     1      47.199  63.042  17.662  1.00  0.00    +0.030 C 
ENDBRANCH  22  25
ENDBRANCH   6  19
TORSDOF 6
ENDMDL
