MODEL 1
REMARK VINA RESULT:    -6.209      0.000      0.000
REMARK INTER + INTRA:          -8.550
REMARK INTER:                  -8.023
REMARK INTRA:                  -0.527
REMARK UNBOUND:                -0.527
REMARK SMILES CC(C)[C@H](NS(=O)(=O)c1cccs1)C(N)=O
REMARK SMILES IDX 4 1 2 2 1 3 3 4 14 5 16 6 15 7 5 10 6 12 7 13 8 14 9 15
REMARK SMILES IDX 10 16 13 17 11 18 12 19
REMARK H PARENT 15 8 15 9 5 11
ROOT
ATOM      1  C   UNL     1      51.323  51.072  18.820  1.00  0.00    +0.161 C 
ENDROOT
BRANCH   1   2
ATOM      2  C   UNL     1      51.779  50.494  20.179  1.00  0.00    +0.010 C 
ATOM      3  C   UNL     1      51.990  51.525  21.293  1.00  0.00    +0.009 C 
ATOM      4  C   UNL     1      50.830  49.390  20.657  1.00  0.00    +0.009 C 
ENDBRANCH   1   2
BRANCH   1   5
ATOM      5  C   UNL     1      52.460  51.561  17.899  1.00  0.00    +0.235 C 
ATOM      6  O   UNL     1      53.063  52.618  18.033  1.00  0.00    -0.273 OA
ATOM      7  N   UNL     1      52.824  50.689  16.910  1.00  0.00    -0.368 N 
ATOM      8  H   UNL     1      52.629  49.692  17.021  1.00  0.00    +0.159 HD
ATOM      9  H   UNL     1      53.660  50.925  16.391  1.00  0.00    +0.159 HD
ENDBRANCH   1   5
BRANCH   1  10
ATOM     10  N   UNL     1      50.553  50.031  18.089  1.00  0.00    -0.198 NA
ATOM     11  H   UNL     1      51.143  49.347  17.607  1.00  0.00    +0.142 HD
BRANCH  10  12
ATOM     12  S   UNL     1      49.276  50.506  17.113  1.00  0.00    +0.250 S 
ATOM     13  O   UNL     1      48.884  51.851  17.477  1.00  0.00    -0.206 OA
ATOM     14  O   UNL     1      49.667  50.172  15.761  1.00  0.00    -0.206 OA
BRANCH  12  15
ATOM     15  C   UNL     1      47.888  49.448  17.453  1.00  0.00    +0.134 A 
ATOM     16  C   UNL     1      47.464  48.836  18.619  1.00  0.00    +0.033 A 
ATOM     17  S   UNL     1      46.843  49.089  16.147  1.00  0.00    -0.131 S 
ATOM     18  C   UNL     1      46.277  48.070  18.433  1.00  0.00    +0.013 A 
ATOM     19  C   UNL     1      45.834  48.121  17.131  1.00  0.00    +0.066 A 
ENDBRANCH  12  15
ENDBRANCH  10  12
ENDBRANCH   1  10
TORSDOF 5
ENDMDL
MODEL 2
REMARK VINA RESULT:    -6.139      5.207      6.240
REMARK INTER + INTRA:          -8.460
REMARK INTER:                  -7.977
REMARK INTRA:                  -0.483
REMARK UNBOUND:                -0.527
REMARK SMILES CC(C)[C@H](NS(=O)(=O)c1cccs1)C(N)=O
REMARK SMILES IDX 4 1 2 2 1 3 3 4 14 5 16 6 15 7 5 10 6 12 7 13 8 14 9 15
REMARK SMILES IDX 10 16 13 17 11 18 12 19
REMARK H PARENT 15 8 15 9 5 11
ROOT
ATOM      1  C   UNL     1      50.348  56.622  20.920  1.00  0.00    +0.161 C 
ENDROOT
BRANCH   1   2
ATOM      2  C   UNL     1      48.925  57.082  21.313  1.00  0.00    +0.010 C 
ATOM      3  C   UNL     1      48.835  58.489  21.917  1.00  0.00    +0.009 C 
ATOM      4  C   UNL     1      47.956  56.953  20.134  1.00  0.00    +0.009 C 
ENDBRANCH   1   2
BRANCH   1   5
ATOM      5  C   UNL     1      51.469  57.046  21.891  1.00  0.00    +0.235 C 
ATOM      6  O   UNL     1      52.224  57.994  21.715  1.00  0.00    -0.273 OA
ATOM      7  N   UNL     1      51.547  56.316  23.044  1.00  0.00    -0.368 N 
ATOM      8  H   UNL     1      50.722  55.816  23.380  1.00  0.00    +0.159 HD
ATOM      9  H   UNL     1      52.174  56.670  23.755  1.00  0.00    +0.159 HD
ENDBRANCH   1   5
BRANCH   1  10
ATOM     10  N   UNL     1      50.362  55.138  20.820  1.00  0.00    -0.198 NA
ATOM     11  H   UNL     1      50.511  54.668  21.717  1.00  0.00    +0.142 HD
BRANCH  10  12
ATOM     12  S   UNL     1      51.276  54.417  19.613  1.00  0.00    +0.250 S 
ATOM     13  O   UNL     1      51.867  55.453  18.793  1.00  0.00    -0.206 OA
ATOM     14  O   UNL     1      52.087  53.420  20.275  1.00  0.00    -0.206 OA
BRANCH  12  15
ATOM     15  C   UNL     1      50.183  53.483  18.566  1.00  0.00    +0.134 A 
ATOM     16  C   UNL     1      49.007  53.830  17.925  1.00  0.00    +0.033 A 
ATOM     17  S   UNL     1      50.610  51.858  18.247  1.00  0.00    -0.131 S 
ATOM     18  C   UNL     1      48.458  52.752  17.172  1.00  0.00    +0.013 A 
ATOM     19  C   UNL     1      49.233  51.618  17.262  1.00  0.00    +0.066 A 
ENDBRANCH  12  15
ENDBRANCH  10  12
ENDBRANCH   1  10
TORSDOF 5
ENDMDL
MODEL 3
REMARK VINA RESULT:    -5.862      3.978      5.631
REMARK INTER + INTRA:          -8.102
REMARK INTER:                  -7.643
REMARK INTRA:                  -0.459
REMARK UNBOUND:                -0.527
REMARK SMILES CC(C)[C@H](NS(=O)(=O)c1cccs1)C(N)=O
REMARK SMILES IDX 4 1 2 2 1 3 3 4 14 5 16 6 15 7 5 10 6 12 7 13 8 14 9 15
REMARK SMILES IDX 10 16 13 17 11 18 12 19
REMARK H PARENT 15 8 15 9 5 11
ROOT
ATOM      1  C   UNL     1      50.871  51.129  19.042  1.00  0.00    +0.161 C 
ENDROOT
BRANCH   1   2
ATOM      2  C   UNL     1      49.796  50.470  18.146  1.00  0.00    +0.010 C 
ATOM      3  C   UNL     1      49.046  49.293  18.779  1.00  0.00    +0.009 C 
ATOM      4  C   UNL     1      48.800  51.510  17.623  1.00  0.00    +0.009 C 
ENDBRANCH   1   2
BRANCH   1   5
ATOM      5  C   UNL     1      52.331  50.866  18.619  1.00  0.00    +0.235 C 
ATOM      6  O   UNL     1      53.083  50.066  19.162  1.00  0.00    -0.273 OA
ATOM      7  N   UNL     1      52.751  51.558  17.516  1.00  0.00    -0.368 N 
ATOM      8  H   UNL     1      52.062  51.899  16.844  1.00  0.00    +0.159 HD
ATOM      9  H   UNL     1      53.650  51.290  17.137  1.00  0.00    +0.159 HD
ENDBRANCH   1   5
BRANCH   1  10
ATOM     10  N   UNL     1      50.652  52.600  19.052  1.00  0.00    -0.198 NA
ATOM     11  H   UNL     1      51.088  53.085  18.263  1.00  0.00    +0.142 HD
BRANCH  10  12
ATOM     12  S   UNL     1      50.900  53.444  20.479  1.00  0.00    +0.250 S 
ATOM     13  O   UNL     1      50.473  52.620  21.590  1.00  0.00    -0.206 OA
ATOM     14  O   UNL     1      52.246  53.967  20.398  1.00  0.00    -0.206 OA
BRANCH  12  15
ATOM     15  C   UNL     1      49.857  54.884  20.466  1.00  0.00    +0.134 A 
ATOM     16  C   UNL     1      48.632  55.125  19.872  1.00  0.00    +0.033 A 
ATOM     17  S   UNL     1      50.407  56.251  21.335  1.00  0.00    -0.131 S 
ATOM     18  C   UNL     1      48.148  56.439  20.132  1.00  0.00    +0.013 A 
ATOM     19  C   UNL     1      49.019  57.159  20.917  1.00  0.00    +0.066 A 
ENDBRANCH  12  15
ENDBRANCH  10  12
ENDBRANCH   1  10
TORSDOF 5
ENDMDL
MODEL 4
REMARK VINA RESULT:    -5.645      2.688      5.510
REMARK INTER + INTRA:          -7.822
REMARK INTER:                  -7.287
REMARK INTRA:                  -0.535
REMARK UNBOUND:                -0.527
REMARK SMILES CC(C)[C@H](NS(=O)(=O)c1cccs1)C(N)=O
REMARK SMILES IDX 4 1 2 2 1 3 3 4 14 5 16 6 15 7 5 10 6 12 7 13 8 14 9 15
REMARK SMILES IDX 10 16 13 17 11 18 12 19
REMARK H PARENT 15 8 15 9 5 11
ROOT
ATOM      1  C   UNL     1      49.222  49.824  17.014  1.00  0.00    +0.161 C 
ENDROOT
BRANCH   1   2
ATOM      2  C   UNL     1      48.033  50.793  17.211  1.00  0.00    +0.010 C 
ATOM      3  C   UNL     1      48.005  51.997  16.263  1.00  0.00    +0.009 C 
ATOM      4  C   UNL     1      46.697  50.047  17.155  1.00  0.00    +0.009 C 
ENDBRANCH   1   2
BRANCH   1   5
ATOM      5  C   UNL     1      49.074  48.832  15.843  1.00  0.00    +0.235 C 
ATOM      6  O   UNL     1      49.010  49.149  14.661  1.00  0.00    -0.273 OA
ATOM      7  N   UNL     1      49.078  47.510  16.195  1.00  0.00    -0.368 N 
ATOM      8  H   UNL     1      49.515  47.225  17.073  1.00  0.00    +0.159 HD
ATOM      9  H   UNL     1      49.131  46.845  15.434  1.00  0.00    +0.159 HD
ENDBRANCH   1   5
BRANCH   1  10
ATOM     10  N   UNL     1      50.458  50.621  16.790  1.00  0.00    -0.198 NA
ATOM     11  H   UNL     1      50.979  50.343  15.953  1.00  0.00    +0.142 HD
BRANCH  10  12
ATOM     12  S   UNL     1      51.499  50.878  18.079  1.00  0.00    +0.250 S 
ATOM     13  O   UNL     1      51.087  50.042  19.186  1.00  0.00    -0.206 OA
ATOM     14  O   UNL     1      52.834  50.803  17.529  1.00  0.00    -0.206 OA
BRANCH  12  15
ATOM     15  C   UNL     1      51.326  52.567  18.608  1.00  0.00    +0.134 A 
ATOM     16  C   UNL     1      50.210  53.365  18.784  1.00  0.00    +0.033 A 
ATOM     17  S   UNL     1      52.762  53.413  18.994  1.00  0.00    -0.131 S 
ATOM     18  C   UNL     1      50.541  54.675  19.235  1.00  0.00    +0.013 A 
ATOM     19  C   UNL     1      51.899  54.835  19.389  1.00  0.00    +0.066 A 
ENDBRANCH  12  15
ENDBRANCH  10  12
ENDBRANCH   1  10
TORSDOF 5
ENDMDL
MODEL 5
REMARK VINA RESULT:    -5.624      2.288      2.764
REMARK INTER + INTRA:          -7.794
REMARK INTER:                  -7.346
REMARK INTRA:                  -0.449
REMARK UNBOUND:                -0.527
REMARK SMILES CC(C)[C@H](NS(=O)(=O)c1cccs1)C(N)=O
REMARK SMILES IDX 4 1 2 2 1 3 3 4 14 5 16 6 15 7 5 10 6 12 7 13 8 14 9 15
REMARK SMILES IDX 10 16 13 17 11 18 12 19
REMARK H PARENT 15 8 15 9 5 11
ROOT
ATOM      1  C   UNL     1      50.924  53.040  18.420  1.00  0.00    +0.161 C 
ENDROOT
BRANCH   1   2
ATOM      2  C   UNL     1      50.607  54.387  19.110  1.00  0.00    +0.010 C 
ATOM      3  C   UNL     1      49.992  54.278  20.510  1.00  0.00    +0.009 C 
ATOM      4  C   UNL     1      51.840  55.294  19.146  1.00  0.00    +0.009 C 
ENDBRANCH   1   2
BRANCH   1   5
ATOM      5  C   UNL     1      52.322  52.462  18.720  1.00  0.00    +0.235 C 
ATOM      6  O   UNL     1      52.717  52.128  19.831  1.00  0.00    -0.273 OA
ATOM      7  N   UNL     1      53.121  52.272  17.626  1.00  0.00    -0.368 N 
ATOM      8  H   UNL     1      52.694  52.165  16.705  1.00  0.00    +0.159 HD
ATOM      9  H   UNL     1      53.979  51.760  17.783  1.00  0.00    +0.159 HD
ENDBRANCH   1   5
BRANCH   1  10
ATOM     10  N   UNL     1      49.911  52.036  18.840  1.00  0.00    -0.198 NA
ATOM     11  H   UNL     1      49.823  51.942  19.856  1.00  0.00    +0.142 HD
BRANCH  10  12
ATOM     12  S   UNL     1      49.911  50.530  18.102  1.00  0.00    +0.250 S 
ATOM     13  O   UNL     1      50.497  50.656  16.785  1.00  0.00    -0.206 OA
ATOM     14  O   UNL     1      50.444  49.611  19.083  1.00  0.00    -0.206 OA
BRANCH  12  15
ATOM     15  C   UNL     1      48.224  50.017  17.876  1.00  0.00    +0.134 A 
ATOM     16  C   UNL     1      47.183  50.576  17.157  1.00  0.00    +0.033 A 
ATOM     17  S   UNL     1      47.737  48.574  18.656  1.00  0.00    -0.131 S 
ATOM     18  C   UNL     1      45.983  49.814  17.251  1.00  0.00    +0.013 A 
ATOM     19  C   UNL     1      46.147  48.697  18.039  1.00  0.00    +0.066 A 
ENDBRANCH  12  15
ENDBRANCH  10  12
ENDBRANCH   1  10
TORSDOF 5
ENDMDL
