MODEL 1
REMARK VINA RESULT:    -6.240      0.000      0.000
REMARK INTER + INTRA:          -9.948
REMARK INTER:                  -9.159
REMARK INTRA:                  -0.789
REMARK UNBOUND:                -0.789
REMARK SMILES CC[NH+](CC)CCNC(=O)N[C@H](C)Cc1ccco1
REMARK SMILES IDX 7 1 6 2 3 3 2 5 1 6 4 7 5 8 8 9 9 10 10 11 11 12 12 15 13 16
REMARK SMILES IDX 14 17 15 18 16 19 19 20 17 21 18 22
REMARK H PARENT 3 4 8 13 11 14
ROOT
ATOM      1  C   UNL     1      52.219  52.380  18.812  1.00  0.00    +0.179 C 
ENDROOT
BRANCH   1   2
ATOM      2  C   UNL     1      50.887  51.826  18.266  1.00  0.00    +0.283 C 
BRANCH   2   3
ATOM      3  N   UNL     1      50.693  50.324  18.443  1.00  0.00    -0.334 N 
ATOM      4  H   UNL     1      51.131  49.951  17.590  1.00  0.00    +0.348 HD
BRANCH   3   5
ATOM      5  C   UNL     1      51.554  49.745  19.556  1.00  0.00    +0.258 C 
ATOM      6  C   UNL     1      50.691  49.135  20.650  1.00  0.00    +0.071 C 
ENDBRANCH   3   5
BRANCH   3   7
ATOM      7  C   UNL     1      49.263  49.842  18.350  1.00  0.00    +0.258 C 
ATOM      8  C   UNL     1      48.548  50.262  17.084  1.00  0.00    +0.071 C 
ENDBRANCH   3   7
ENDBRANCH   2   3
ENDBRANCH   1   2
BRANCH   1   9
ATOM      9  N   UNL     1      52.056  53.214  19.989  1.00  0.00    -0.333 N 
ATOM     10  C   UNL     1      52.032  54.580  19.832  1.00  0.00    +0.315 C 
ATOM     11  O   UNL     1      51.988  55.117  18.733  1.00  0.00    -0.249 OA
ATOM     12  N   UNL     1      52.049  55.228  21.031  1.00  0.00    -0.335 N 
ATOM     13  H   UNL     1      52.553  52.927  20.825  1.00  0.00    +0.165 HD
ATOM     14  H   UNL     1      51.674  54.711  21.816  1.00  0.00    +0.165 HD
BRANCH  12  15
ATOM     15  C   UNL     1      51.885  56.683  21.114  1.00  0.00    +0.088 C 
ATOM     16  C   UNL     1      53.221  57.334  21.468  1.00  0.00    +0.031 C 
BRANCH  15  17
ATOM     17  C   UNL     1      50.749  57.098  22.073  1.00  0.00    +0.100 C 
BRANCH  17  18
ATOM     18  C   UNL     1      49.433  57.267  21.397  1.00  0.00    +0.105 A 
ATOM     19  C   UNL     1      48.462  58.249  21.435  1.00  0.00    +0.045 A 
ATOM     20  O   UNL     1      49.049  56.266  20.560  1.00  0.00    -0.469 OA
ATOM     21  C   UNL     1      47.434  57.826  20.564  1.00  0.00    +0.042 A 
ATOM     22  C   UNL     1      47.835  56.611  20.059  1.00  0.00    +0.195 A 
ENDBRANCH  17  18
ENDBRANCH  15  17
ENDBRANCH  12  15
ENDBRANCH   1   9
TORSDOF 8
ENDMDL
MODEL 2
REMARK VINA RESULT:    -6.167      3.039      7.069
REMARK INTER + INTRA:          -9.839
REMARK INTER:                  -9.070
REMARK INTRA:                  -0.770
REMARK UNBOUND:                -0.789
REMARK SMILES CC[NH+](CC)CCNC(=O)N[C@H](C)Cc1ccco1
REMARK SMILES IDX 7 1 6 2 3 3 2 5 1 6 4 7 5 8 8 9 9 10 10 11 11 12 12 15 13 16
REMARK SMILES IDX 14 17 15 18 16 19 19 20 17 21 18 22
REMARK H PARENT 3 4 8 13 11 14
ROOT
ATOM      1  C   UNL     1      52.607  52.395  18.777  1.00  0.00    +0.179 C 
ENDROOT
BRANCH   1   2
ATOM      2  C   UNL     1      52.181  53.799  19.253  1.00  0.00    +0.283 C 
BRANCH   2   3
ATOM      3  N   UNL     1      50.756  53.896  19.785  1.00  0.00    -0.334 N 
ATOM      4  H   UNL     1      50.247  53.269  19.148  1.00  0.00    +0.348 HD
BRANCH   3   5
ATOM      5  C   UNL     1      50.585  53.224  21.140  1.00  0.00    +0.258 C 
ATOM      6  C   UNL     1      51.577  53.778  22.152  1.00  0.00    +0.071 C 
ENDBRANCH   3   5
BRANCH   3   7
ATOM      7  C   UNL     1      50.080  55.234  19.585  1.00  0.00    +0.258 C 
ATOM      8  C   UNL     1      48.585  55.214  19.817  1.00  0.00    +0.071 C 
ENDBRANCH   3   7
ENDBRANCH   2   3
ENDBRANCH   1   2
BRANCH   1   9
ATOM      9  N   UNL     1      51.841  51.916  17.642  1.00  0.00    -0.333 N 
ATOM     10  C   UNL     1      50.886  50.948  17.851  1.00  0.00    +0.315 C 
ATOM     11  O   UNL     1      50.549  50.585  18.969  1.00  0.00    -0.249 OA
ATOM     12  N   UNL     1      50.377  50.478  16.677  1.00  0.00    -0.335 N 
ATOM     13  H   UNL     1      52.346  51.783  16.773  1.00  0.00    +0.165 HD
ATOM     14  H   UNL     1      50.418  51.116  15.892  1.00  0.00    +0.165 HD
BRANCH  12  15
ATOM     15  C   UNL     1      49.246  49.544  16.655  1.00  0.00    +0.088 C 
ATOM     16  C   UNL     1      49.282  48.717  15.371  1.00  0.00    +0.031 C 
BRANCH  15  17
ATOM     17  C   UNL     1      47.890  50.250  16.871  1.00  0.00    +0.100 C 
BRANCH  17  18
ATOM     18  C   UNL     1      46.858  49.376  17.497  1.00  0.00    +0.105 A 
ATOM     19  C   UNL     1      46.906  48.381  18.453  1.00  0.00    +0.045 A 
ATOM     20  O   UNL     1      45.579  49.545  17.064  1.00  0.00    -0.469 OA
ATOM     21  C   UNL     1      45.581  47.924  18.619  1.00  0.00    +0.042 A 
ATOM     22  C   UNL     1      44.810  48.661  17.749  1.00  0.00    +0.195 A 
ENDBRANCH  17  18
ENDBRANCH  15  17
ENDBRANCH  12  15
ENDBRANCH   1   9
TORSDOF 8
ENDMDL
MODEL 3
REMARK VINA RESULT:    -6.152      1.680      2.220
REMARK INTER + INTRA:          -9.818
REMARK INTER:                  -8.941
REMARK INTRA:                  -0.877
REMARK UNBOUND:                -0.789
REMARK SMILES CC[NH+](CC)CCNC(=O)N[C@H](C)Cc1ccco1
REMARK SMILES IDX 7 1 6 2 3 3 2 5 1 6 4 7 5 8 8 9 9 10 10 11 11 12 12 15 13 16
REMARK SMILES IDX 14 17 15 18 16 19 19 20 17 21 18 22
REMARK H PARENT 3 4 8 13 11 14
ROOT
ATOM      1  C   UNL     1      49.974  51.974  17.464  1.00  0.00    +0.179 C 
ENDROOT
BRANCH   1   2
ATOM      2  C   UNL     1      50.076  50.503  17.915  1.00  0.00    +0.283 C 
BRANCH   2   3
ATOM      3  N   UNL     1      49.679  49.475  16.861  1.00  0.00    -0.334 N 
ATOM      4  H   UNL     1      50.523  48.891  16.804  1.00  0.00    +0.348 HD
BRANCH   3   5
ATOM      5  C   UNL     1      48.617  48.503  17.356  1.00  0.00    +0.258 C 
ATOM      6  C   UNL     1      48.137  48.883  18.748  1.00  0.00    +0.071 C 
ENDBRANCH   3   5
BRANCH   3   7
ATOM      7  C   UNL     1      49.524  50.016  15.458  1.00  0.00    +0.258 C 
ATOM      8  C   UNL     1      50.681  49.693  14.538  1.00  0.00    +0.071 C 
ENDBRANCH   3   7
ENDBRANCH   2   3
ENDBRANCH   1   2
BRANCH   1   9
ATOM      9  N   UNL     1      49.795  52.903  18.565  1.00  0.00    -0.333 N 
ATOM     10  C   UNL     1      50.893  53.579  19.043  1.00  0.00    +0.315 C 
ATOM     11  O   UNL     1      51.981  53.548  18.485  1.00  0.00    -0.249 OA
ATOM     12  N   UNL     1      50.603  54.275  20.178  1.00  0.00    -0.335 N 
ATOM     13  H   UNL     1      49.160  52.620  19.303  1.00  0.00    +0.165 HD
ATOM     14  H   UNL     1      49.636  54.552  20.291  1.00  0.00    +0.165 HD
BRANCH  12  15
ATOM     15  C   UNL     1      51.580  55.183  20.786  1.00  0.00    +0.088 C 
ATOM     16  C   UNL     1      51.617  54.968  22.299  1.00  0.00    +0.031 C 
BRANCH  15  17
ATOM     17  C   UNL     1      51.339  56.659  20.402  1.00  0.00    +0.100 C 
BRANCH  17  18
ATOM     18  C   UNL     1      49.913  57.076  20.511  1.00  0.00    +0.105 A 
ATOM     19  C   UNL     1      49.205  57.809  21.443  1.00  0.00    +0.045 A 
ATOM     20  O   UNL     1      49.084  56.666  19.513  1.00  0.00    -0.469 OA
ATOM     21  C   UNL     1      47.871  57.857  20.982  1.00  0.00    +0.042 A 
ATOM     22  C   UNL     1      47.847  57.143  19.805  1.00  0.00    +0.195 A 
ENDBRANCH  17  18
ENDBRANCH  15  17
ENDBRANCH  12  15
ENDBRANCH   1   9
TORSDOF 8
ENDMDL
MODEL 4
REMARK VINA RESULT:    -6.094      1.824      6.878
REMARK INTER + INTRA:          -9.733
REMARK INTER:                  -8.642
REMARK INTRA:                  -1.091
REMARK UNBOUND:                -0.789
REMARK SMILES CC[NH+](CC)CCNC(=O)N[C@H](C)Cc1ccco1
REMARK SMILES IDX 7 1 6 2 3 3 2 5 1 6 4 7 5 8 8 9 9 10 10 11 11 12 12 15 13 16
REMARK SMILES IDX 14 17 15 18 16 19 19 20 17 21 18 22
REMARK H PARENT 3 4 8 13 11 14
ROOT
ATOM      1  C   UNL     1      52.008  54.787  21.539  1.00  0.00    +0.179 C 
ENDROOT
BRANCH   1   2
ATOM      2  C   UNL     1      51.286  55.708  22.545  1.00  0.00    +0.283 C 
BRANCH   2   3
ATOM      3  N   UNL     1      51.108  57.151  22.086  1.00  0.00    -0.334 N 
ATOM      4  H   UNL     1      51.393  57.677  22.922  1.00  0.00    +0.348 HD
BRANCH   3   5
ATOM      5  C   UNL     1      52.137  57.569  21.045  1.00  0.00    +0.258 C 
ATOM      6  C   UNL     1      52.995  58.716  21.558  1.00  0.00    +0.071 C 
ENDBRANCH   3   5
BRANCH   3   7
ATOM      7  C   UNL     1      49.678  57.585  21.861  1.00  0.00    +0.258 C 
ATOM      8  C   UNL     1      48.948  56.793  20.799  1.00  0.00    +0.071 C 
ENDBRANCH   3   7
ENDBRANCH   2   3
ENDBRANCH   1   2
BRANCH   1   9
ATOM      9  N   UNL     1      51.138  53.787  20.948  1.00  0.00    -0.333 N 
ATOM     10  C   UNL     1      50.920  53.823  19.590  1.00  0.00    +0.315 C 
ATOM     11  O   UNL     1      51.545  54.561  18.841  1.00  0.00    -0.249 OA
ATOM     12  N   UNL     1      49.954  52.939  19.210  1.00  0.00    -0.335 N 
ATOM     13  H   UNL     1      50.305  53.540  21.470  1.00  0.00    +0.165 HD
ATOM     14  H   UNL     1      49.829  52.137  19.814  1.00  0.00    +0.165 HD
BRANCH  12  15
ATOM     15  C   UNL     1      49.653  52.700  17.795  1.00  0.00    +0.088 C 
ATOM     16  C   UNL     1      48.274  53.264  17.456  1.00  0.00    +0.031 C 
BRANCH  15  17
ATOM     17  C   UNL     1      49.802  51.216  17.399  1.00  0.00    +0.100 C 
BRANCH  17  18
ATOM     18  C   UNL     1      50.255  50.344  18.519  1.00  0.00    +0.105 A 
ATOM     19  C   UNL     1      49.635  49.372  19.279  1.00  0.00    +0.045 A 
ATOM     20  O   UNL     1      51.542  50.505  18.929  1.00  0.00    -0.469 OA
ATOM     21  C   UNL     1      50.602  48.908  20.197  1.00  0.00    +0.042 A 
ATOM     22  C   UNL     1      51.745  49.631  19.948  1.00  0.00    +0.195 A 
ENDBRANCH  17  18
ENDBRANCH  15  17
ENDBRANCH  12  15
ENDBRANCH   1   9
TORSDOF 8
ENDMDL
MODEL 5
REMARK VINA RESULT:    -6.033      2.104      6.519
REMARK INTER + INTRA:          -9.644
REMARK INTER:                  -8.778
REMARK INTRA:                  -0.866
REMARK UNBOUND:                -0.789
REMARK SMILES CC[NH+](CC)CCNC(=O)N[C@H](C)Cc1ccco1
REMARK SMILES IDX 7 1 6 2 3 3 2 5 1 6 4 7 5 8 8 9 9 10 10 11 11 12 12 15 13 16
REMARK SMILES IDX 14 17 15 18 16 19 19 20 17 21 18 22
REMARK H PARENT 3 4 8 13 11 14
ROOT
ATOM      1  C   UNL     1      51.628  54.561  22.531  1.00  0.00    +0.179 C 
ENDROOT
BRANCH   1   2
ATOM      2  C   UNL     1      51.627  56.099  22.418  1.00  0.00    +0.283 C 
BRANCH   2   3
ATOM      3  N   UNL     1      51.777  56.642  21.001  1.00  0.00    -0.334 N 
ATOM      4  H   UNL     1      51.631  55.798  20.433  1.00  0.00    +0.348 HD
BRANCH   3   5
ATOM      5  C   UNL     1      50.619  57.541  20.588  1.00  0.00    +0.258 C 
ATOM      6  C   UNL     1      49.468  57.435  21.577  1.00  0.00    +0.071 C 
ENDBRANCH   3   5
BRANCH   3   7
ATOM      7  C   UNL     1      53.171  57.090  20.625  1.00  0.00    +0.258 C 
ATOM      8  C   UNL     1      53.869  57.907  21.691  1.00  0.00    +0.071 C 
ENDBRANCH   3   7
ENDBRANCH   2   3
ENDBRANCH   1   2
BRANCH   1   9
ATOM      9  N   UNL     1      51.586  53.889  21.245  1.00  0.00    -0.333 N 
ATOM     10  C   UNL     1      51.090  52.607  21.186  1.00  0.00    +0.315 C 
ATOM     11  O   UNL     1      50.545  52.067  22.138  1.00  0.00    -0.249 OA
ATOM     12  N   UNL     1      51.275  52.050  19.956  1.00  0.00    -0.335 N 
ATOM     13  H   UNL     1      52.380  54.029  20.630  1.00  0.00    +0.165 HD
ATOM     14  H   UNL     1      51.341  52.701  19.183  1.00  0.00    +0.165 HD
BRANCH  12  15
ATOM     15  C   UNL     1      50.701  50.744  19.617  1.00  0.00    +0.088 C 
ATOM     16  C   UNL     1      51.642  49.631  20.075  1.00  0.00    +0.031 C 
BRANCH  15  17
ATOM     17  C   UNL     1      50.327  50.630  18.123  1.00  0.00    +0.100 C 
BRANCH  17  18
ATOM     18  C   UNL     1      49.254  51.575  17.705  1.00  0.00    +0.105 A 
ATOM     19  C   UNL     1      47.968  51.405  17.231  1.00  0.00    +0.045 A 
ATOM     20  O   UNL     1      49.553  52.900  17.775  1.00  0.00    -0.469 OA
ATOM     21  C   UNL     1      47.451  52.700  17.009  1.00  0.00    +0.042 A 
ATOM     22  C   UNL     1      48.455  53.577  17.351  1.00  0.00    +0.195 A 
ENDBRANCH  17  18
ENDBRANCH  15  17
ENDBRANCH  12  15
ENDBRANCH   1   9
TORSDOF 8
ENDMDL
