MODEL 1
REMARK VINA RESULT:    -8.345      0.000      0.000
REMARK INTER + INTRA:         -11.654
REMARK INTER:                 -10.784
REMARK INTRA:                  -0.869
REMARK UNBOUND:                -0.869
REMARK SMILES CC1=C(C(=O)N/N=C/c2ccc(O)cc2O)[C@@H](c2ccc(Cl)cc2)NC(=S)N1
REMARK SMILES IDX 4 1 5 2 6 3 3 5 2 6 28 7 17 8 26 9 25 10 27 11 1 12 18 15
REMARK SMILES IDX 19 16 24 17 20 18 23 19 21 20 22 21 7 22 8 23 9 24 10 25
REMARK SMILES IDX 15 26 11 27 14 28 12 29 16 30 13 32
REMARK H PARENT 6 4 28 13 25 14 16 31 13 33
ROOT
ATOM      1  C   UNL     1      49.423  53.564  19.134  1.00  0.00    +0.271 C 
ATOM      2  O   UNL     1      48.221  53.794  19.092  1.00  0.00    -0.268 OA
ATOM      3  N   UNL     1      50.055  52.457  18.592  1.00  0.00    -0.243 N 
ATOM      4  H   UNL     1      51.065  52.372  18.621  1.00  0.00    +0.194 HD
ENDROOT
BRANCH   1   5
ATOM      5  C   UNL     1      50.378  54.530  19.730  1.00  0.00    +0.064 C 
ATOM      6  C   UNL     1      51.058  54.268  20.863  1.00  0.00    +0.025 C 
ATOM      7  N   UNL     1      52.033  55.160  21.256  1.00  0.00    -0.336 N 
ATOM      8  C   UNL     1      50.567  55.805  18.958  1.00  0.00    +0.150 C 
ATOM      9  C   UNL     1      52.459  56.219  20.510  1.00  0.00    +0.171 C 
ATOM     10  N   UNL     1      51.838  56.423  19.319  1.00  0.00    -0.351 N 
ATOM     11  S   UNL     1      53.704  57.193  21.016  1.00  0.00    -0.041 S 
ATOM     12  C   UNL     1      50.850  53.091  21.770  1.00  0.00    +0.065 C 
ATOM     13  H   UNL     1      52.535  55.001  22.126  1.00  0.00    +0.169 HD
ATOM     14  H   UNL     1      52.108  57.260  18.817  1.00  0.00    +0.163 HD
BRANCH   8  15
ATOM     15  C   UNL     1      49.431  56.807  19.117  1.00  0.00    -0.021 A 
ATOM     16  C   UNL     1      48.657  57.172  18.002  1.00  0.00    +0.008 A 
ATOM     17  C   UNL     1      49.115  57.377  20.364  1.00  0.00    +0.008 A 
ATOM     18  C   UNL     1      47.609  58.087  18.125  1.00  0.00    +0.021 A 
ATOM     19  C   UNL     1      48.067  58.294  20.487  1.00  0.00    +0.021 A 
ATOM     20  C   UNL     1      47.320  58.646  19.367  1.00  0.00    +0.041 A 
ATOM     21 Cl   UNL     1      46.031  59.776  19.519  1.00  0.00    -0.084 Cl
ENDBRANCH   8  15
ENDBRANCH   1   5
BRANCH   3  22
ATOM     22  N   UNL     1      49.314  51.500  17.971  1.00  0.00    -0.180 NA
ATOM     23  C   UNL     1      49.195  50.376  18.601  1.00  0.00    +0.145 C 
BRANCH  23  24
ATOM     24  C   UNL     1      48.415  49.263  18.025  1.00  0.00    +0.037 A 
ATOM     25  C   UNL     1      47.304  48.799  18.740  1.00  0.00    +0.017 A 
ATOM     26  C   UNL     1      48.756  48.667  16.803  1.00  0.00    +0.128 A 
ATOM     27  C   UNL     1      46.536  47.746  18.233  1.00  0.00    +0.047 A 
ATOM     28  C   UNL     1      47.990  47.618  16.299  1.00  0.00    +0.093 A 
ATOM     29  C   UNL     1      46.889  47.165  17.017  1.00  0.00    +0.119 A 
BRANCH  26  30
ATOM     30  O   UNL     1      49.824  49.062  16.045  1.00  0.00    -0.507 OA
ATOM     31  H   UNL     1      50.080  48.320  15.450  1.00  0.00    +0.293 HD
ENDBRANCH  26  30
BRANCH  29  32
ATOM     32  O   UNL     1      46.166  46.137  16.489  1.00  0.00    -0.508 OA
ATOM     33  H   UNL     1      46.634  45.302  16.647  1.00  0.00    +0.293 HD
ENDBRANCH  29  32
ENDBRANCH  23  24
ENDBRANCH   3  22
TORSDOF 6
ENDMDL
MODEL 2
REMARK VINA RESULT:    -7.816      2.900      3.981
REMARK INTER + INTRA:         -10.970
REMARK INTER:                 -10.287
REMARK INTRA:                  -0.682
REMARK UNBOUND:                -0.869
REMARK SMILES CC1=C(C(=O)N/N=C/c2ccc(O)cc2O)[C@@H](c2ccc(Cl)cc2)NC(=S)N1
REMARK SMILES IDX 4 1 5 2 6 3 3 5 2 6 28 7 17 8 26 9 25 10 27 11 1 12 18 15
REMARK SMILES IDX 19 16 24 17 20 18 23 19 21 20 22 21 7 22 8 23 9 24 10 25
REMARK SMILES IDX 15 26 11 27 14 28 12 29 16 30 13 32
REMARK H PARENT 6 4 28 13 25 14 16 31 13 33
ROOT
ATOM      1  C   UNL     1      49.112  54.538  18.480  1.00  0.00    +0.271 C 
ATOM      2  O   UNL     1      50.226  54.130  18.781  1.00  0.00    -0.268 OA
ATOM      3  N   UNL     1      48.075  53.767  17.981  1.00  0.00    -0.243 N 
ATOM      4  H   UNL     1      47.162  54.175  17.813  1.00  0.00    +0.194 HD
ENDROOT
BRANCH   1   5
ATOM      5  C   UNL     1      48.715  55.950  18.705  1.00  0.00    +0.064 C 
ATOM      6  C   UNL     1      48.348  56.766  17.698  1.00  0.00    +0.025 C 
ATOM      7  N   UNL     1      47.852  58.011  18.019  1.00  0.00    -0.336 N 
ATOM      8  C   UNL     1      48.711  56.395  20.140  1.00  0.00    +0.150 C 
ATOM      9  C   UNL     1      47.574  58.429  19.287  1.00  0.00    +0.171 C 
ATOM     10  N   UNL     1      47.853  57.564  20.297  1.00  0.00    -0.351 N 
ATOM     11  S   UNL     1      46.891  59.913  19.582  1.00  0.00    -0.041 S 
ATOM     12  C   UNL     1      48.439  56.461  16.231  1.00  0.00    +0.065 C 
ATOM     13  H   UNL     1      47.601  58.657  17.275  1.00  0.00    +0.169 HD
ATOM     14  H   UNL     1      47.719  57.921  21.235  1.00  0.00    +0.163 HD
BRANCH   8  15
ATOM     15  C   UNL     1      50.094  56.677  20.712  1.00  0.00    -0.021 A 
ATOM     16  C   UNL     1      50.846  57.760  20.225  1.00  0.00    +0.008 A 
ATOM     17  C   UNL     1      50.646  55.888  21.737  1.00  0.00    +0.008 A 
ATOM     18  C   UNL     1      52.116  58.039  20.738  1.00  0.00    +0.021 A 
ATOM     19  C   UNL     1      51.917  56.166  22.249  1.00  0.00    +0.021 A 
ATOM     20  C   UNL     1      52.647  57.239  21.746  1.00  0.00    +0.041 A 
ATOM     21 Cl   UNL     1      54.212  57.579  22.374  1.00  0.00    -0.084 Cl
ENDBRANCH   8  15
ENDBRANCH   1   5
BRANCH   3  22
ATOM     22  N   UNL     1      48.273  52.440  17.762  1.00  0.00    -0.180 NA
ATOM     23  C   UNL     1      47.254  51.780  17.314  1.00  0.00    +0.145 C 
BRANCH  23  24
ATOM     24  C   UNL     1      47.348  50.332  17.040  1.00  0.00    +0.037 A 
ATOM     25  C   UNL     1      46.288  49.515  17.454  1.00  0.00    +0.017 A 
ATOM     26  C   UNL     1      48.452  49.766  16.391  1.00  0.00    +0.128 A 
ATOM     27  C   UNL     1      46.334  48.138  17.216  1.00  0.00    +0.047 A 
ATOM     28  C   UNL     1      48.497  48.394  16.155  1.00  0.00    +0.093 A 
ATOM     29  C   UNL     1      47.440  47.591  16.569  1.00  0.00    +0.119 A 
BRANCH  26  30
ATOM     30  O   UNL     1      49.526  50.495  15.956  1.00  0.00    -0.507 OA
ATOM     31  H   UNL     1      50.093  50.714  16.731  1.00  0.00    +0.293 HD
ENDBRANCH  26  30
BRANCH  29  32
ATOM     32  O   UNL     1      47.523  46.253  16.319  1.00  0.00    -0.508 OA
ATOM     33  H   UNL     1      47.427  45.765  17.152  1.00  0.00    +0.293 HD
ENDBRANCH  29  32
ENDBRANCH  23  24
ENDBRANCH   3  22
TORSDOF 6
ENDMDL
MODEL 3
REMARK VINA RESULT:    -7.581      4.003      8.428
REMARK INTER + INTRA:         -10.666
REMARK INTER:                  -9.781
REMARK INTRA:                  -0.885
REMARK UNBOUND:                -0.869
REMARK SMILES CC1=C(C(=O)N/N=C/c2ccc(O)cc2O)[C@@H](c2ccc(Cl)cc2)NC(=S)N1
REMARK SMILES IDX 4 1 5 2 6 3 3 5 2 6 28 7 17 8 26 9 25 10 27 11 1 12 18 15
REMARK SMILES IDX 19 16 24 17 20 18 23 19 21 20 22 21 7 22 8 23 9 24 10 25
REMARK SMILES IDX 15 26 11 27 14 28 12 29 16 30 13 32
REMARK H PARENT 6 4 28 13 25 14 16 31 13 33
ROOT
ATOM      1  C   UNL     1      49.547  52.726  17.810  1.00  0.00    +0.271 C 
ATOM      2  O   UNL     1      49.024  52.825  16.708  1.00  0.00    -0.268 OA
ATOM      3  N   UNL     1      49.715  53.756  18.721  1.00  0.00    -0.243 N 
ATOM      4  H   UNL     1      50.107  53.575  19.639  1.00  0.00    +0.194 HD
ENDROOT
BRANCH   1   5
ATOM      5  C   UNL     1      50.004  51.417  18.339  1.00  0.00    +0.064 C 
ATOM      6  C   UNL     1      51.307  51.122  18.506  1.00  0.00    +0.025 C 
ATOM      7  N   UNL     1      51.630  49.943  19.143  1.00  0.00    -0.336 N 
ATOM      8  C   UNL     1      48.910  50.459  18.714  1.00  0.00    +0.150 C 
ATOM      9  C   UNL     1      50.726  49.116  19.743  1.00  0.00    +0.171 C 
ATOM     10  N   UNL     1      49.417  49.469  19.658  1.00  0.00    -0.351 N 
ATOM     11  S   UNL     1      51.206  47.759  20.570  1.00  0.00    -0.041 S 
ATOM     12  C   UNL     1      52.472  51.952  18.047  1.00  0.00    +0.065 C 
ATOM     13  H   UNL     1      52.606  49.682  19.250  1.00  0.00    +0.169 HD
ATOM     14  H   UNL     1      48.754  48.803  20.036  1.00  0.00    +0.163 HD
BRANCH   8  15
ATOM     15  C   UNL     1      48.250  49.767  17.529  1.00  0.00    -0.021 A 
ATOM     16  C   UNL     1      46.850  49.644  17.481  1.00  0.00    +0.008 A 
ATOM     17  C   UNL     1      49.003  49.252  16.458  1.00  0.00    +0.008 A 
ATOM     18  C   UNL     1      46.223  49.015  16.402  1.00  0.00    +0.021 A 
ATOM     19  C   UNL     1      48.375  48.622  15.380  1.00  0.00    +0.021 A 
ATOM     20  C   UNL     1      46.989  48.504  15.358  1.00  0.00    +0.041 A 
ATOM     21 Cl   UNL     1      46.217  47.726  14.031  1.00  0.00    -0.084 Cl
ENDBRANCH   8  15
ENDBRANCH   1   5
BRANCH   3  22
ATOM     22  N   UNL     1      49.303  55.011  18.397  1.00  0.00    -0.180 NA
ATOM     23  C   UNL     1      48.640  55.644  19.310  1.00  0.00    +0.145 C 
BRANCH  23  24
ATOM     24  C   UNL     1      48.140  57.013  19.072  1.00  0.00    +0.037 A 
ATOM     25  C   UNL     1      47.938  57.842  20.184  1.00  0.00    +0.017 A 
ATOM     26  C   UNL     1      47.866  57.494  17.786  1.00  0.00    +0.128 A 
ATOM     27  C   UNL     1      47.465  59.145  20.006  1.00  0.00    +0.047 A 
ATOM     28  C   UNL     1      47.394  58.793  17.610  1.00  0.00    +0.093 A 
ATOM     29  C   UNL     1      47.197  59.608  18.720  1.00  0.00    +0.119 A 
BRANCH  26  30
ATOM     30  O   UNL     1      48.037  56.749  16.651  1.00  0.00    -0.507 OA
ATOM     31  H   UNL     1      47.494  57.144  15.930  1.00  0.00    +0.293 HD
ENDBRANCH  26  30
BRANCH  29  32
ATOM     32  O   UNL     1      46.735  60.873  18.505  1.00  0.00    -0.508 OA
ATOM     33  H   UNL     1      46.806  61.383  19.328  1.00  0.00    +0.293 HD
ENDBRANCH  29  32
ENDBRANCH  23  24
ENDBRANCH   3  22
TORSDOF 6
ENDMDL
MODEL 4
REMARK VINA RESULT:    -7.380      6.154      9.372
REMARK INTER + INTRA:         -10.406
REMARK INTER:                 -10.348
REMARK INTRA:                  -0.058
REMARK UNBOUND:                -0.869
REMARK SMILES CC1=C(C(=O)N/N=C/c2ccc(O)cc2O)[C@@H](c2ccc(Cl)cc2)NC(=S)N1
REMARK SMILES IDX 4 1 5 2 6 3 3 5 2 6 28 7 17 8 26 9 25 10 27 11 1 12 18 15
REMARK SMILES IDX 19 16 24 17 20 18 23 19 21 20 22 21 7 22 8 23 9 24 10 25
REMARK SMILES IDX 15 26 11 27 14 28 12 29 16 30 13 32
REMARK H PARENT 6 4 28 13 25 14 16 31 13 33
ROOT
ATOM      1  C   UNL     1      45.988  60.555  17.907  1.00  0.00    +0.271 C 
ATOM      2  O   UNL     1      46.310  59.982  16.874  1.00  0.00    -0.268 OA
ATOM      3  N   UNL     1      46.540  60.337  19.159  1.00  0.00    -0.243 N 
ATOM      4  H   UNL     1      46.255  60.898  19.954  1.00  0.00    +0.194 HD
ENDROOT
BRANCH   1   5
ATOM      5  C   UNL     1      44.985  61.648  17.909  1.00  0.00    +0.064 C 
ATOM      6  C   UNL     1      45.068  62.702  18.744  1.00  0.00    +0.025 C 
ATOM      7  N   UNL     1      44.178  63.740  18.570  1.00  0.00    -0.336 N 
ATOM      8  C   UNL     1      43.894  61.520  16.885  1.00  0.00    +0.150 C 
ATOM      9  C   UNL     1      43.307  63.845  17.525  1.00  0.00    +0.171 C 
ATOM     10  N   UNL     1      43.296  62.825  16.628  1.00  0.00    -0.351 N 
ATOM     11  S   UNL     1      42.330  65.174  17.339  1.00  0.00    -0.041 S 
ATOM     12  C   UNL     1      46.037  62.861  19.879  1.00  0.00    +0.065 C 
ATOM     13  H   UNL     1      44.198  64.529  19.210  1.00  0.00    +0.169 HD
ATOM     14  H   UNL     1      42.587  62.879  15.906  1.00  0.00    +0.163 HD
BRANCH   8  15
ATOM     15  C   UNL     1      42.814  60.508  17.245  1.00  0.00    -0.021 A 
ATOM     16  C   UNL     1      42.464  59.502  16.328  1.00  0.00    +0.008 A 
ATOM     17  C   UNL     1      42.156  60.538  18.488  1.00  0.00    +0.008 A 
ATOM     18  C   UNL     1      41.478  58.562  16.638  1.00  0.00    +0.021 A 
ATOM     19  C   UNL     1      41.168  59.598  18.797  1.00  0.00    +0.021 A 
ATOM     20  C   UNL     1      40.832  58.616  17.870  1.00  0.00    +0.041 A 
ATOM     21 Cl   UNL     1      39.615  57.460  18.251  1.00  0.00    -0.084 Cl
ENDBRANCH   8  15
ENDBRANCH   1   5
BRANCH   3  22
ATOM     22  N   UNL     1      47.507  59.393  19.309  1.00  0.00    -0.180 NA
ATOM     23  C   UNL     1      47.344  58.564  20.290  1.00  0.00    +0.145 C 
BRANCH  23  24
ATOM     24  C   UNL     1      48.330  57.497  20.553  1.00  0.00    +0.037 A 
ATOM     25  C   UNL     1      48.286  56.348  19.752  1.00  0.00    +0.017 A 
ATOM     26  C   UNL     1      49.291  57.603  21.567  1.00  0.00    +0.128 A 
ATOM     27  C   UNL     1      49.200  55.312  19.966  1.00  0.00    +0.047 A 
ATOM     28  C   UNL     1      50.201  56.569  21.779  1.00  0.00    +0.093 A 
ATOM     29  C   UNL     1      50.148  55.433  20.979  1.00  0.00    +0.119 A 
BRANCH  26  30
ATOM     30  O   UNL     1      49.401  58.690  22.391  1.00  0.00    -0.507 OA
ATOM     31  H   UNL     1      49.721  58.388  23.271  1.00  0.00    +0.293 HD
ENDBRANCH  26  30
BRANCH  29  32
ATOM     32  O   UNL     1      51.057  54.445  21.218  1.00  0.00    -0.508 OA
ATOM     33  H   UNL     1      51.904  54.845  21.471  1.00  0.00    +0.293 HD
ENDBRANCH  29  32
ENDBRANCH  23  24
ENDBRANCH   3  22
TORSDOF 6
ENDMDL
MODEL 5
REMARK VINA RESULT:    -7.290      5.573      8.270
REMARK INTER + INTRA:         -10.290
REMARK INTER:                 -10.454
REMARK INTRA:                   0.163
REMARK UNBOUND:                -0.869
REMARK SMILES CC1=C(C(=O)N/N=C/c2ccc(O)cc2O)[C@@H](c2ccc(Cl)cc2)NC(=S)N1
REMARK SMILES IDX 4 1 5 2 6 3 3 5 2 6 28 7 17 8 26 9 25 10 27 11 1 12 18 15
REMARK SMILES IDX 19 16 24 17 20 18 23 19 21 20 22 21 7 22 8 23 9 24 10 25
REMARK SMILES IDX 15 26 11 27 14 28 12 29 16 30 13 32
REMARK H PARENT 6 4 28 13 25 14 16 31 13 33
ROOT
ATOM      1  C   UNL     1      47.086  58.639  17.284  1.00  0.00    +0.271 C 
ATOM      2  O   UNL     1      47.572  58.000  16.360  1.00  0.00    -0.268 OA
ATOM      3  N   UNL     1      47.284  58.390  18.632  1.00  0.00    -0.243 N 
ATOM      4  H   UNL     1      46.889  59.005  19.335  1.00  0.00    +0.194 HD
ENDROOT
BRANCH   1   5
ATOM      5  C   UNL     1      46.261  59.848  17.043  1.00  0.00    +0.064 C 
ATOM      6  C   UNL     1      46.175  60.853  17.936  1.00  0.00    +0.025 C 
ATOM      7  N   UNL     1      45.508  62.000  17.561  1.00  0.00    -0.336 N 
ATOM      8  C   UNL     1      45.559  59.893  15.716  1.00  0.00    +0.150 C 
ATOM      9  C   UNL     1      45.046  62.249  16.302  1.00  0.00    +0.171 C 
ATOM     10  N   UNL     1      45.222  61.271  15.376  1.00  0.00    -0.351 N 
ATOM     11  S   UNL     1      44.333  63.696  15.910  1.00  0.00    -0.041 S 
ATOM     12  C   UNL     1      46.729  60.850  19.332  1.00  0.00    +0.065 C 
ATOM     13  H   UNL     1      45.402  62.758  18.230  1.00  0.00    +0.169 HD
ATOM     14  H   UNL     1      44.800  61.438  14.471  1.00  0.00    +0.163 HD
BRANCH   8  15
ATOM     15  C   UNL     1      44.320  59.012  15.632  1.00  0.00    -0.021 A 
ATOM     16  C   UNL     1      43.123  59.428  16.241  1.00  0.00    +0.008 A 
ATOM     17  C   UNL     1      44.328  57.786  14.944  1.00  0.00    +0.008 A 
ATOM     18  C   UNL     1      41.973  58.637  16.174  1.00  0.00    +0.021 A 
ATOM     19  C   UNL     1      43.177  56.994  14.879  1.00  0.00    +0.021 A 
ATOM     20  C   UNL     1      42.006  57.422  15.496  1.00  0.00    +0.041 A 
ATOM     21 Cl   UNL     1      40.591  56.446  15.417  1.00  0.00    -0.084 Cl
ENDBRANCH   8  15
ENDBRANCH   1   5
BRANCH   3  22
ATOM     22  N   UNL     1      48.057  57.338  19.013  1.00  0.00    -0.180 NA
ATOM     23  C   UNL     1      48.629  57.442  20.169  1.00  0.00    +0.145 C 
BRANCH  23  24
ATOM     24  C   UNL     1      49.493  56.364  20.688  1.00  0.00    +0.037 A 
ATOM     25  C   UNL     1      49.302  55.069  20.187  1.00  0.00    +0.017 A 
ATOM     26  C   UNL     1      50.481  56.598  21.653  1.00  0.00    +0.128 A 
ATOM     27  C   UNL     1      50.098  54.017  20.649  1.00  0.00    +0.047 A 
ATOM     28  C   UNL     1      51.273  55.548  22.113  1.00  0.00    +0.093 A 
ATOM     29  C   UNL     1      51.075  54.267  21.609  1.00  0.00    +0.119 A 
BRANCH  26  30
ATOM     30  O   UNL     1      50.731  57.831  22.191  1.00  0.00    -0.507 OA
ATOM     31  H   UNL     1      51.587  57.797  22.675  1.00  0.00    +0.293 HD
ENDBRANCH  26  30
BRANCH  29  32
ATOM     32  O   UNL     1      51.871  53.268  22.085  1.00  0.00    -0.508 OA
ATOM     33  H   UNL     1      51.794  53.230  23.052  1.00  0.00    +0.293 HD
ENDBRANCH  29  32
ENDBRANCH  23  24
ENDBRANCH   3  22
TORSDOF 6
ENDMDL
