MODEL 1
REMARK VINA RESULT:    -8.150      0.000      0.000
REMARK INTER + INTRA:         -11.862
REMARK INTER:                 -10.771
REMARK INTRA:                  -1.091
REMARK UNBOUND:                -1.091
REMARK SMILES CC1=C(C(=O)N/N=C/c2ccc(O)cc2O)[C@@H](c2ccc(O)cc2)NC(=S)N1
REMARK SMILES IDX 4 1 5 2 6 3 3 5 2 6 28 7 17 8 26 9 25 10 27 11 1 12 18 15
REMARK SMILES IDX 19 16 24 17 20 18 23 19 21 20 22 21 7 23 8 24 9 25 10 26
REMARK SMILES IDX 15 27 11 28 14 29 12 30 16 31 13 33
REMARK H PARENT 6 4 28 13 25 14 22 22 16 32 13 34
ROOT
ATOM      1  C   UNL     1      48.323  55.518  19.022  1.00  0.00    +0.271 C 
ATOM      2  O   UNL     1      47.542  54.780  19.610  1.00  0.00    -0.268 OA
ATOM      3  N   UNL     1      49.506  55.160  18.389  1.00  0.00    -0.243 N 
ATOM      4  H   UNL     1      50.174  55.903  18.196  1.00  0.00    +0.194 HD
ENDROOT
BRANCH   1   5
ATOM      5  C   UNL     1      48.091  56.984  19.006  1.00  0.00    +0.064 C 
ATOM      6  C   UNL     1      47.751  57.647  17.886  1.00  0.00    +0.025 C 
ATOM      7  N   UNL     1      47.522  59.002  17.977  1.00  0.00    -0.336 N 
ATOM      8  C   UNL     1      48.223  57.648  20.346  1.00  0.00    +0.150 C 
ATOM      9  C   UNL     1      47.531  59.716  19.137  1.00  0.00    +0.171 C 
ATOM     10  N   UNL     1      47.808  59.043  20.280  1.00  0.00    -0.351 N 
ATOM     11  S   UNL     1      47.199  61.343  19.154  1.00  0.00    -0.041 S 
ATOM     12  C   UNL     1      47.555  57.050  16.522  1.00  0.00    +0.065 C 
ATOM     13  H   UNL     1      47.268  59.522  17.143  1.00  0.00    +0.169 HD
ATOM     14  H   UNL     1      47.830  59.585  21.135  1.00  0.00    +0.163 HD
BRANCH   8  15
ATOM     15  C   UNL     1      49.636  57.543  20.904  1.00  0.00    -0.021 A 
ATOM     16  C   UNL     1      49.885  56.741  22.031  1.00  0.00    +0.010 A 
ATOM     17  C   UNL     1      50.723  58.185  20.282  1.00  0.00    +0.010 A 
ATOM     18  C   UNL     1      51.181  56.591  22.530  1.00  0.00    +0.046 A 
ATOM     19  C   UNL     1      52.017  58.037  20.784  1.00  0.00    +0.046 A 
ATOM     20  C   UNL     1      52.236  57.242  21.901  1.00  0.00    +0.115 A 
BRANCH  20  21
ATOM     21  O   UNL     1      53.517  57.121  22.351  1.00  0.00    -0.508 OA
ATOM     22  H   UNL     1      54.058  56.728  21.647  1.00  0.00    +0.293 HD
ENDBRANCH  20  21
ENDBRANCH   8  15
ENDBRANCH   1   5
BRANCH   3  23
ATOM     23  N   UNL     1      50.063  53.907  18.410  1.00  0.00    -0.180 NA
ATOM     24  C   UNL     1      50.500  53.455  19.546  1.00  0.00    +0.145 C 
BRANCH  24  25
ATOM     25  C   UNL     1      51.164  52.138  19.637  1.00  0.00    +0.037 A 
ATOM     26  C   UNL     1      50.806  51.294  20.696  1.00  0.00    +0.017 A 
ATOM     27  C   UNL     1      52.129  51.718  18.711  1.00  0.00    +0.128 A 
ATOM     28  C   UNL     1      51.409  50.041  20.819  1.00  0.00    +0.047 A 
ATOM     29  C   UNL     1      52.730  50.466  18.833  1.00  0.00    +0.093 A 
ATOM     30  C   UNL     1      52.362  49.638  19.889  1.00  0.00    +0.119 A 
BRANCH  27  31
ATOM     31  O   UNL     1      52.537  52.489  17.656  1.00  0.00    -0.507 OA
ATOM     32  H   UNL     1      51.968  53.291  17.646  1.00  0.00    +0.293 HD
ENDBRANCH  27  31
BRANCH  30  33
ATOM     33  O   UNL     1      52.922  48.405  20.050  1.00  0.00    -0.508 OA
ATOM     34  H   UNL     1      52.846  48.149  20.985  1.00  0.00    +0.293 HD
ENDBRANCH  30  33
ENDBRANCH  24  25
ENDBRANCH   3  23
TORSDOF 7
ENDMDL
MODEL 2
REMARK VINA RESULT:    -8.128      3.154      3.169
REMARK INTER + INTRA:         -11.833
REMARK INTER:                 -10.903
REMARK INTRA:                  -0.929
REMARK UNBOUND:                -1.091
REMARK SMILES CC1=C(C(=O)N/N=C/c2ccc(O)cc2O)[C@@H](c2ccc(O)cc2)NC(=S)N1
REMARK SMILES IDX 4 1 5 2 6 3 3 5 2 6 28 7 17 8 26 9 25 10 27 11 1 12 18 15
REMARK SMILES IDX 19 16 24 17 20 18 23 19 21 20 22 21 7 23 8 24 9 25 10 26
REMARK SMILES IDX 15 27 11 28 14 29 12 30 16 31 13 33
REMARK H PARENT 6 4 28 13 25 14 22 22 16 32 13 34
ROOT
ATOM      1  C   UNL     1      49.148  55.056  18.493  1.00  0.00    +0.271 C 
ATOM      2  O   UNL     1      50.357  54.861  18.428  1.00  0.00    -0.268 OA
ATOM      3  N   UNL     1      48.135  54.116  18.368  1.00  0.00    -0.243 N 
ATOM      4  H   UNL     1      47.201  54.463  18.165  1.00  0.00    +0.194 HD
ENDROOT
BRANCH   1   5
ATOM      5  C   UNL     1      48.627  56.438  18.644  1.00  0.00    +0.064 C 
ATOM      6  C   UNL     1      48.231  57.177  17.591  1.00  0.00    +0.025 C 
ATOM      7  N   UNL     1      47.728  58.436  17.834  1.00  0.00    -0.336 N 
ATOM      8  C   UNL     1      48.537  56.916  20.064  1.00  0.00    +0.150 C 
ATOM      9  C   UNL     1      47.519  58.965  19.071  1.00  0.00    +0.171 C 
ATOM     10  N   UNL     1      47.854  58.201  20.139  1.00  0.00    -0.351 N 
ATOM     11  S   UNL     1      46.866  60.479  19.265  1.00  0.00    -0.041 S 
ATOM     12  C   UNL     1      48.246  56.753  16.150  1.00  0.00    +0.065 C 
ATOM     13  H   UNL     1      47.427  59.011  17.053  1.00  0.00    +0.169 HD
ATOM     14  H   UNL     1      47.712  58.609  21.055  1.00  0.00    +0.163 HD
BRANCH   8  15
ATOM     15  C   UNL     1      49.904  57.006  20.729  1.00  0.00    -0.021 A 
ATOM     16  C   UNL     1      50.236  56.117  21.766  1.00  0.00    +0.010 A 
ATOM     17  C   UNL     1      50.878  57.921  20.290  1.00  0.00    +0.010 A 
ATOM     18  C   UNL     1      51.501  56.148  22.356  1.00  0.00    +0.046 A 
ATOM     19  C   UNL     1      52.141  57.954  20.884  1.00  0.00    +0.046 A 
ATOM     20  C   UNL     1      52.443  57.068  21.909  1.00  0.00    +0.115 A 
BRANCH  20  21
ATOM     21  O   UNL     1      53.691  57.130  22.454  1.00  0.00    -0.508 OA
ATOM     22  H   UNL     1      54.187  57.840  22.014  1.00  0.00    +0.293 HD
ENDBRANCH  20  21
ENDBRANCH   8  15
ENDBRANCH   1   5
BRANCH   3  23
ATOM     23  N   UNL     1      48.320  52.798  18.035  1.00  0.00    -0.180 NA
ATOM     24  C   UNL     1      47.427  52.230  17.283  1.00  0.00    +0.145 C 
BRANCH  24  25
ATOM     25  C   UNL     1      47.528  50.798  16.930  1.00  0.00    +0.037 A 
ATOM     26  C   UNL     1      46.458  49.962  17.272  1.00  0.00    +0.017 A 
ATOM     27  C   UNL     1      48.646  50.263  16.276  1.00  0.00    +0.128 A 
ATOM     28  C   UNL     1      46.512  48.603  16.957  1.00  0.00    +0.047 A 
ATOM     29  C   UNL     1      48.698  48.906  15.959  1.00  0.00    +0.093 A 
ATOM     30  C   UNL     1      47.627  48.088  16.303  1.00  0.00    +0.119 A 
BRANCH  27  31
ATOM     31  O   UNL     1      49.732  51.015  15.917  1.00  0.00    -0.507 OA
ATOM     32  H   UNL     1      50.500  50.404  15.853  1.00  0.00    +0.293 HD
ENDBRANCH  27  31
BRANCH  30  33
ATOM     33  O   UNL     1      47.633  46.755  16.016  1.00  0.00    -0.508 OA
ATOM     34  H   UNL     1      47.484  46.643  15.061  1.00  0.00    +0.293 HD
ENDBRANCH  30  33
ENDBRANCH  24  25
ENDBRANCH   3  23
TORSDOF 7
ENDMDL
MODEL 3
REMARK VINA RESULT:    -7.728      3.658      4.927
REMARK INTER + INTRA:         -11.303
REMARK INTER:                 -10.394
REMARK INTRA:                  -0.909
REMARK UNBOUND:                -1.091
REMARK SMILES CC1=C(C(=O)N/N=C/c2ccc(O)cc2O)[C@@H](c2ccc(O)cc2)NC(=S)N1
REMARK SMILES IDX 4 1 5 2 6 3 3 5 2 6 28 7 17 8 26 9 25 10 27 11 1 12 18 15
REMARK SMILES IDX 19 16 24 17 20 18 23 19 21 20 22 21 7 23 8 24 9 25 10 26
REMARK SMILES IDX 15 27 11 28 14 29 12 30 16 31 13 33
REMARK H PARENT 6 4 28 13 25 14 22 22 16 32 13 34
ROOT
ATOM      1  C   UNL     1      49.459  54.076  19.417  1.00  0.00    +0.271 C 
ATOM      2  O   UNL     1      48.272  54.200  19.696  1.00  0.00    -0.268 OA
ATOM      3  N   UNL     1      50.031  53.141  18.565  1.00  0.00    -0.243 N 
ATOM      4  H   UNL     1      51.032  52.982  18.653  1.00  0.00    +0.194 HD
ENDROOT
BRANCH   1   5
ATOM      5  C   UNL     1      50.471  54.932  20.083  1.00  0.00    +0.064 C 
ATOM      6  C   UNL     1      51.152  54.529  21.171  1.00  0.00    +0.025 C 
ATOM      7  N   UNL     1      52.098  55.380  21.699  1.00  0.00    -0.336 N 
ATOM      8  C   UNL     1      50.700  56.258  19.416  1.00  0.00    +0.150 C 
ATOM      9  C   UNL     1      52.461  56.574  21.153  1.00  0.00    +0.171 C 
ATOM     10  N   UNL     1      51.825  56.959  20.020  1.00  0.00    -0.351 N 
ATOM     11  S   UNL     1      53.645  57.515  21.838  1.00  0.00    -0.041 S 
ATOM     12  C   UNL     1      51.016  53.205  21.867  1.00  0.00    +0.065 C 
ATOM     13  H   UNL     1      52.621  55.096  22.521  1.00  0.00    +0.169 HD
ATOM     14  H   UNL     1      52.088  57.856  19.631  1.00  0.00    +0.163 HD
BRANCH   8  15
ATOM     15  C   UNL     1      49.456  57.136  19.441  1.00  0.00    -0.021 A 
ATOM     16  C   UNL     1      49.042  57.727  20.648  1.00  0.00    +0.010 A 
ATOM     17  C   UNL     1      48.735  57.426  18.268  1.00  0.00    +0.010 A 
ATOM     18  C   UNL     1      47.933  58.575  20.685  1.00  0.00    +0.046 A 
ATOM     19  C   UNL     1      47.624  58.271  18.308  1.00  0.00    +0.046 A 
ATOM     20  C   UNL     1      47.233  58.839  19.513  1.00  0.00    +0.115 A 
BRANCH  20  21
ATOM     21  O   UNL     1      46.148  59.664  19.503  1.00  0.00    -0.508 OA
ATOM     22  H   UNL     1      45.701  59.578  18.645  1.00  0.00    +0.293 HD
ENDBRANCH  20  21
ENDBRANCH   8  15
ENDBRANCH   1   5
BRANCH   3  23
ATOM     23  N   UNL     1      49.358  52.107  17.964  1.00  0.00    -0.180 NA
ATOM     24  C   UNL     1      49.430  50.933  18.513  1.00  0.00    +0.145 C 
BRANCH  24  25
ATOM     25  C   UNL     1      48.781  49.761  17.891  1.00  0.00    +0.037 A 
ATOM     26  C   UNL     1      47.732  49.146  18.587  1.00  0.00    +0.017 A 
ATOM     27  C   UNL     1      49.180  49.252  16.647  1.00  0.00    +0.128 A 
ATOM     28  C   UNL     1      47.090  48.036  18.035  1.00  0.00    +0.047 A 
ATOM     29  C   UNL     1      48.538  48.145  16.096  1.00  0.00    +0.093 A 
ATOM     30  C   UNL     1      47.496  47.546  16.797  1.00  0.00    +0.119 A 
BRANCH  27  31
ATOM     31  O   UNL     1      50.201  49.793  15.913  1.00  0.00    -0.507 OA
ATOM     32  H   UNL     1      49.907  50.683  15.618  1.00  0.00    +0.293 HD
ENDBRANCH  27  31
BRANCH  30  33
ATOM     33  O   UNL     1      46.838  46.461  16.299  1.00  0.00    -0.508 OA
ATOM     34  H   UNL     1      47.145  45.668  16.772  1.00  0.00    +0.293 HD
ENDBRANCH  30  33
ENDBRANCH  24  25
ENDBRANCH   3  23
TORSDOF 7
ENDMDL
MODEL 4
REMARK VINA RESULT:    -7.427      3.892      5.258
REMARK INTER + INTRA:         -10.905
REMARK INTER:                 -10.034
REMARK INTRA:                  -0.871
REMARK UNBOUND:                -1.091
REMARK SMILES CC1=C(C(=O)N/N=C/c2ccc(O)cc2O)[C@@H](c2ccc(O)cc2)NC(=S)N1
REMARK SMILES IDX 4 1 5 2 6 3 3 5 2 6 28 7 17 8 26 9 25 10 27 11 1 12 18 15
REMARK SMILES IDX 19 16 24 17 20 18 23 19 21 20 22 21 7 23 8 24 9 25 10 26
REMARK SMILES IDX 15 27 11 28 14 29 12 30 16 31 13 33
REMARK H PARENT 6 4 28 13 25 14 22 22 16 32 13 34
ROOT
ATOM      1  C   UNL     1      48.740  54.342  19.362  1.00  0.00    +0.271 C 
ATOM      2  O   UNL     1      47.635  54.407  19.887  1.00  0.00    -0.268 OA
ATOM      3  N   UNL     1      49.126  53.521  18.310  1.00  0.00    -0.243 N 
ATOM      4  H   UNL     1      50.124  53.377  18.175  1.00  0.00    +0.194 HD
ENDROOT
BRANCH   1   5
ATOM      5  C   UNL     1      49.868  55.140  19.903  1.00  0.00    +0.064 C 
ATOM      6  C   UNL     1      50.141  56.385  19.471  1.00  0.00    +0.025 C 
ATOM      7  N   UNL     1      51.187  57.061  20.059  1.00  0.00    -0.336 N 
ATOM      8  C   UNL     1      50.640  54.462  20.998  1.00  0.00    +0.150 C 
ATOM      9  C   UNL     1      51.920  56.599  21.110  1.00  0.00    +0.171 C 
ATOM     10  N   UNL     1      51.608  55.373  21.594  1.00  0.00    -0.351 N 
ATOM     11  S   UNL     1      53.137  57.507  21.782  1.00  0.00    -0.041 S 
ATOM     12  C   UNL     1      49.390  57.147  18.418  1.00  0.00    +0.065 C 
ATOM     13  H   UNL     1      51.412  58.000  19.746  1.00  0.00    +0.169 HD
ATOM     14  H   UNL     1      52.170  55.029  22.364  1.00  0.00    +0.163 HD
BRANCH   8  15
ATOM     15  C   UNL     1      51.335  53.197  20.512  1.00  0.00    -0.021 A 
ATOM     16  C   UNL     1      51.027  51.960  21.104  1.00  0.00    +0.010 A 
ATOM     17  C   UNL     1      52.241  53.221  19.436  1.00  0.00    +0.010 A 
ATOM     18  C   UNL     1      51.615  50.780  20.641  1.00  0.00    +0.046 A 
ATOM     19  C   UNL     1      52.831  52.042  18.978  1.00  0.00    +0.046 A 
ATOM     20  C   UNL     1      52.514  50.833  19.582  1.00  0.00    +0.115 A 
BRANCH  20  21
ATOM     21  O   UNL     1      53.108  49.706  19.096  1.00  0.00    -0.508 OA
ATOM     22  H   UNL     1      52.667  49.454  18.269  1.00  0.00    +0.293 HD
ENDBRANCH  20  21
ENDBRANCH   8  15
ENDBRANCH   1   5
BRANCH   3  23
ATOM     23  N   UNL     1      48.344  52.548  17.742  1.00  0.00    -0.180 NA
ATOM     24  C   UNL     1      48.845  51.355  17.629  1.00  0.00    +0.145 C 
BRANCH  24  25
ATOM     25  C   UNL     1      48.085  50.269  16.975  1.00  0.00    +0.037 A 
ATOM     26  C   UNL     1      46.718  50.164  17.257  1.00  0.00    +0.017 A 
ATOM     27  C   UNL     1      48.685  49.355  16.098  1.00  0.00    +0.128 A 
ATOM     28  C   UNL     1      45.962  49.152  16.660  1.00  0.00    +0.047 A 
ATOM     29  C   UNL     1      47.931  48.347  15.502  1.00  0.00    +0.093 A 
ATOM     30  C   UNL     1      46.572  48.256  15.789  1.00  0.00    +0.119 A 
BRANCH  27  31
ATOM     31  O   UNL     1      50.017  49.388  15.781  1.00  0.00    -0.507 OA
ATOM     32  H   UNL     1      50.237  48.527  15.361  1.00  0.00    +0.293 HD
ENDBRANCH  27  31
BRANCH  30  33
ATOM     33  O   UNL     1      45.793  47.286  15.231  1.00  0.00    -0.508 OA
ATOM     34  H   UNL     1      44.928  47.289  15.675  1.00  0.00    +0.293 HD
ENDBRANCH  30  33
ENDBRANCH  24  25
ENDBRANCH   3  23
TORSDOF 7
ENDMDL
MODEL 5
REMARK VINA RESULT:    -7.409      4.878      7.599
REMARK INTER + INTRA:         -10.882
REMARK INTER:                 -10.071
REMARK INTRA:                  -0.811
REMARK UNBOUND:                -1.091
REMARK SMILES CC1=C(C(=O)N/N=C/c2ccc(O)cc2O)[C@@H](c2ccc(O)cc2)NC(=S)N1
REMARK SMILES IDX 4 1 5 2 6 3 3 5 2 6 28 7 17 8 26 9 25 10 27 11 1 12 18 15
REMARK SMILES IDX 19 16 24 17 20 18 23 19 21 20 22 21 7 23 8 24 9 25 10 26
REMARK SMILES IDX 15 27 11 28 14 29 12 30 16 31 13 33
REMARK H PARENT 6 4 28 13 25 14 22 22 16 32 13 34
ROOT
ATOM      1  C   UNL     1      45.417  60.630  18.063  1.00  0.00    +0.271 C 
ATOM      2  O   UNL     1      45.529  60.105  16.961  1.00  0.00    -0.268 OA
ATOM      3  N   UNL     1      46.179  60.381  19.196  1.00  0.00    -0.243 N 
ATOM      4  H   UNL     1      45.793  60.677  20.090  1.00  0.00    +0.194 HD
ENDROOT
BRANCH   1   5
ATOM      5  C   UNL     1      44.317  61.594  18.317  1.00  0.00    +0.064 C 
ATOM      6  C   UNL     1      43.021  61.251  18.214  1.00  0.00    +0.025 C 
ATOM      7  N   UNL     1      42.071  62.205  18.504  1.00  0.00    -0.336 N 
ATOM      8  C   UNL     1      44.774  62.960  18.742  1.00  0.00    +0.150 C 
ATOM      9  C   UNL     1      42.341  63.455  18.972  1.00  0.00    +0.171 C 
ATOM     10  N   UNL     1      43.644  63.787  19.142  1.00  0.00    -0.351 N 
ATOM     11  S   UNL     1      41.125  64.524  19.336  1.00  0.00    -0.041 S 
ATOM     12  C   UNL     1      42.485  59.898  17.842  1.00  0.00    +0.065 C 
ATOM     13  H   UNL     1      41.087  61.967  18.429  1.00  0.00    +0.169 HD
ATOM     14  H   UNL     1      43.837  64.724  19.473  1.00  0.00    +0.163 HD
BRANCH   8  15
ATOM     15  C   UNL     1      45.582  63.659  17.656  1.00  0.00    -0.021 A 
ATOM     16  C   UNL     1      46.957  63.881  17.842  1.00  0.00    +0.010 A 
ATOM     17  C   UNL     1      44.998  64.038  16.433  1.00  0.00    +0.010 A 
ATOM     18  C   UNL     1      47.727  64.476  16.840  1.00  0.00    +0.046 A 
ATOM     19  C   UNL     1      45.769  64.636  15.434  1.00  0.00    +0.046 A 
ATOM     20  C   UNL     1      47.124  64.849  15.644  1.00  0.00    +0.115 A 
BRANCH  20  21
ATOM     21  O   UNL     1      47.838  65.429  14.638  1.00  0.00    -0.508 OA
ATOM     22  H   UNL     1      47.499  66.327  14.494  1.00  0.00    +0.293 HD
ENDBRANCH  20  21
ENDBRANCH   8  15
ENDBRANCH   1   5
BRANCH   3  23
ATOM     23  N   UNL     1      47.136  59.404  19.303  1.00  0.00    -0.180 NA
ATOM     24  C   UNL     1      47.147  58.679  20.379  1.00  0.00    +0.145 C 
BRANCH  24  25
ATOM     25  C   UNL     1      48.184  57.647  20.592  1.00  0.00    +0.037 A 
ATOM     26  C   UNL     1      48.185  56.534  19.742  1.00  0.00    +0.017 A 
ATOM     27  C   UNL     1      49.147  57.748  21.605  1.00  0.00    +0.128 A 
ATOM     28  C   UNL     1      49.148  55.536  19.907  1.00  0.00    +0.047 A 
ATOM     29  C   UNL     1      50.109  56.752  21.768  1.00  0.00    +0.093 A 
ATOM     30  C   UNL     1      50.100  55.653  20.915  1.00  0.00    +0.119 A 
BRANCH  27  31
ATOM     31  O   UNL     1      49.205  58.800  22.479  1.00  0.00    -0.507 OA
ATOM     32  H   UNL     1      50.045  58.714  22.981  1.00  0.00    +0.293 HD
ENDBRANCH  27  31
BRANCH  30  33
ATOM     33  O   UNL     1      51.019  54.654  21.037  1.00  0.00    -0.508 OA
ATOM     34  H   UNL     1      51.905  55.051  21.091  1.00  0.00    +0.293 HD
ENDBRANCH  30  33
ENDBRANCH  24  25
ENDBRANCH   3  23
TORSDOF 7
ENDMDL
