MODEL 1
REMARK VINA RESULT:    -8.806      0.000      0.000
REMARK INTER + INTRA:         -12.905
REMARK INTER:                 -12.409
REMARK INTRA:                  -0.496
REMARK UNBOUND:                -0.496
REMARK SMILES C[C@@H]1CCC[C@@](CNC(=O)c2ccc(S(=O)(=O)NC(C)(C)C)cc2)([NH+](C)C)C1
REMARK SMILES IDX 11 1 12 2 13 3 14 4 23 5 24 6 9 7 8 8 10 9 7 11 6 12 2 13
REMARK SMILES IDX 3 14 28 15 4 16 5 17 1 18 25 19 26 20 27 21 15 23 16 24
REMARK SMILES IDX 17 25 18 26 19 28 20 29 21 30 22 31
REMARK H PARENT 8 10 25 22 18 27
ROOT
ATOM      1  C   UNL     1      50.203  50.834  19.102  1.00  0.00    +0.039 A 
ATOM      2  C   UNL     1      49.799  51.173  17.802  1.00  0.00    +0.015 A 
ATOM      3  C   UNL     1      49.181  50.226  16.982  1.00  0.00    +0.022 A 
ATOM      4  C   UNL     1      48.964  48.934  17.467  1.00  0.00    +0.082 A 
ATOM      5  C   UNL     1      49.353  48.586  18.765  1.00  0.00    +0.022 A 
ATOM      6  C   UNL     1      49.976  49.536  19.582  1.00  0.00    +0.015 A 
ENDROOT
BRANCH   1   7
ATOM      7  C   UNL     1      50.802  51.904  19.949  1.00  0.00    +0.251 C 
ATOM      8  N   UNL     1      50.156  53.131  19.981  1.00  0.00    -0.346 N 
ATOM      9  O   UNL     1      51.838  51.697  20.568  1.00  0.00    -0.269 OA
ATOM     10  H   UNL     1      49.195  53.148  19.658  1.00  0.00    +0.164 HD
BRANCH   8  11
ATOM     11  C   UNL     1      50.544  54.143  20.955  1.00  0.00    +0.184 C 
BRANCH  11  12
ATOM     12  C   UNL     1      50.542  55.629  20.449  1.00  0.00    +0.115 C 
ATOM     13  C   UNL     1      49.248  57.742  21.201  1.00  0.00    -0.008 C 
ATOM     14  C   UNL     1      47.931  57.241  20.586  1.00  0.00    +0.004 C 
ATOM     15  C   UNL     1      50.115  56.554  21.641  1.00  0.00    +0.073 C 
ATOM     16  C   UNL     1      48.107  55.986  19.731  1.00  0.00    +0.007 C 
ATOM     17  C   UNL     1      49.549  55.816  19.262  1.00  0.00    +0.070 C 
ATOM     18  C   UNL     1      48.971  58.688  22.369  1.00  0.00    +0.008 C 
BRANCH  12  19
ATOM     19  N   UNL     1      51.965  56.103  19.982  1.00  0.00    -0.333 N 
ATOM     20  C   UNL     1      52.847  55.073  19.314  1.00  0.00    +0.333 C 
ATOM     21  C   UNL     1      52.785  56.841  21.026  1.00  0.00    +0.333 C 
ATOM     22  H   UNL     1      51.779  56.801  19.252  1.00  0.00    +0.348 HD
ENDBRANCH  12  19
ENDBRANCH  11  12
ENDBRANCH   8  11
ENDBRANCH   1   7
BRANCH   4  23
ATOM     23  S   UNL     1      48.086  47.766  16.454  1.00  0.00    +0.241 S 
ATOM     24  O   UNL     1      48.938  46.601  16.352  1.00  0.00    -0.207 OA
ATOM     25  O   UNL     1      47.599  48.454  15.282  1.00  0.00    -0.207 OA
BRANCH  23  26
ATOM     26  N   UNL     1      46.798  47.313  17.431  1.00  0.00    -0.206 NA
ATOM     27  H   UNL     1      46.773  46.296  17.523  1.00  0.00    +0.141 HD
BRANCH  26  28
ATOM     28  C   UNL     1      45.487  48.005  17.459  1.00  0.00    +0.025 C 
ATOM     29  C   UNL     1      44.627  47.534  16.282  1.00  0.00    +0.028 C 
ATOM     30  C   UNL     1      44.797  47.577  18.770  1.00  0.00    +0.028 C 
ATOM     31  C   UNL     1      45.623  49.529  17.468  1.00  0.00    +0.028 C 
ENDBRANCH  26  28
ENDBRANCH  23  26
ENDBRANCH   4  23
TORSDOF 7
ENDMDL
MODEL 2
REMARK VINA RESULT:    -8.754      2.996      8.566
REMARK INTER + INTRA:         -12.833
REMARK INTER:                 -12.338
REMARK INTRA:                  -0.494
REMARK UNBOUND:                -0.496
REMARK SMILES C[C@@H]1CCC[C@@](CNC(=O)c2ccc(S(=O)(=O)NC(C)(C)C)cc2)([NH+](C)C)C1
REMARK SMILES IDX 11 1 12 2 13 3 14 4 23 5 24 6 9 7 8 8 10 9 7 11 6 12 2 13
REMARK SMILES IDX 3 14 28 15 4 16 5 17 1 18 25 19 26 20 27 21 15 23 16 24
REMARK SMILES IDX 17 25 18 26 19 28 20 29 21 30 22 31
REMARK H PARENT 8 10 25 22 18 27
ROOT
ATOM      1  C   UNL     1      51.561  52.206  19.830  1.00  0.00    +0.039 A 
ATOM      2  C   UNL     1      51.238  52.450  21.173  1.00  0.00    +0.015 A 
ATOM      3  C   UNL     1      51.372  53.731  21.713  1.00  0.00    +0.022 A 
ATOM      4  C   UNL     1      51.830  54.773  20.904  1.00  0.00    +0.082 A 
ATOM      5  C   UNL     1      52.146  54.546  19.561  1.00  0.00    +0.022 A 
ATOM      6  C   UNL     1      52.015  53.260  19.024  1.00  0.00    +0.015 A 
ENDROOT
BRANCH   1   7
ATOM      7  C   UNL     1      51.339  50.832  19.296  1.00  0.00    +0.251 C 
ATOM      8  N   UNL     1      50.066  50.296  19.418  1.00  0.00    -0.346 N 
ATOM      9  O   UNL     1      52.264  50.206  18.793  1.00  0.00    -0.269 OA
ATOM     10  H   UNL     1      49.314  50.949  19.607  1.00  0.00    +0.164 HD
BRANCH   8  11
ATOM     11  C   UNL     1      49.714  49.066  18.722  1.00  0.00    +0.184 C 
BRANCH  11  12
ATOM     12  C   UNL     1      48.721  49.212  17.514  1.00  0.00    +0.115 C 
ATOM     13  C   UNL     1      46.279  48.438  17.142  1.00  0.00    -0.008 C 
ATOM     14  C   UNL     1      46.695  46.967  16.978  1.00  0.00    +0.004 C 
ATOM     15  C   UNL     1      47.257  49.166  18.074  1.00  0.00    +0.073 C 
ATOM     16  C   UNL     1      48.211  46.777  16.895  1.00  0.00    +0.007 C 
ATOM     17  C   UNL     1      48.922  48.062  16.482  1.00  0.00    +0.070 C 
ATOM     18  C   UNL     1      44.844  48.537  17.658  1.00  0.00    +0.008 C 
BRANCH  12  19
ATOM     19  N   UNL     1      48.889  50.583  16.767  1.00  0.00    -0.333 N 
ATOM     20  C   UNL     1      47.836  51.638  17.020  1.00  0.00    +0.333 C 
ATOM     21  C   UNL     1      49.129  50.488  15.269  1.00  0.00    +0.333 C 
ATOM     22  H   UNL     1      49.756  50.982  17.147  1.00  0.00    +0.348 HD
ENDBRANCH  12  19
ENDBRANCH  11  12
ENDBRANCH   8  11
ENDBRANCH   1   7
BRANCH   4  23
ATOM     23  S   UNL     1      51.901  56.420  21.571  1.00  0.00    +0.241 S 
ATOM     24  O   UNL     1      53.250  56.891  21.341  1.00  0.00    -0.207 OA
ATOM     25  O   UNL     1      51.320  56.401  22.893  1.00  0.00    -0.207 OA
BRANCH  23  26
ATOM     26  N   UNL     1      50.921  57.294  20.525  1.00  0.00    -0.206 NA
ATOM     27  H   UNL     1      51.377  58.172  20.275  1.00  0.00    +0.141 HD
BRANCH  26  28
ATOM     28  C   UNL     1      49.440  57.321  20.594  1.00  0.00    +0.025 C 
ATOM     29  C   UNL     1      48.994  58.068  21.855  1.00  0.00    +0.028 C 
ATOM     30  C   UNL     1      48.962  58.115  19.361  1.00  0.00    +0.028 C 
ATOM     31  C   UNL     1      48.819  55.924  20.530  1.00  0.00    +0.028 C 
ENDBRANCH  26  28
ENDBRANCH  23  26
ENDBRANCH   4  23
TORSDOF 7
ENDMDL
MODEL 3
REMARK VINA RESULT:    -8.244      3.307      9.104
REMARK INTER + INTRA:         -12.114
REMARK INTER:                 -11.759
REMARK INTRA:                  -0.356
REMARK UNBOUND:                -0.496
REMARK SMILES C[C@@H]1CCC[C@@](CNC(=O)c2ccc(S(=O)(=O)NC(C)(C)C)cc2)([NH+](C)C)C1
REMARK SMILES IDX 11 1 12 2 13 3 14 4 23 5 24 6 9 7 8 8 10 9 7 11 6 12 2 13
REMARK SMILES IDX 3 14 28 15 4 16 5 17 1 18 25 19 26 20 27 21 15 23 16 24
REMARK SMILES IDX 17 25 18 26 19 28 20 29 21 30 22 31
REMARK H PARENT 8 10 25 22 18 27
ROOT
ATOM      1  C   UNL     1      51.051  51.893  20.426  1.00  0.00    +0.039 A 
ATOM      2  C   UNL     1      51.890  52.004  21.545  1.00  0.00    +0.015 A 
ATOM      3  C   UNL     1      52.012  53.220  22.222  1.00  0.00    +0.022 A 
ATOM      4  C   UNL     1      51.289  54.329  21.778  1.00  0.00    +0.082 A 
ATOM      5  C   UNL     1      50.442  54.230  20.670  1.00  0.00    +0.022 A 
ATOM      6  C   UNL     1      50.325  53.012  19.992  1.00  0.00    +0.015 A 
ENDROOT
BRANCH   1   7
ATOM      7  C   UNL     1      50.917  50.555  19.784  1.00  0.00    +0.251 C 
ATOM      8  N   UNL     1      49.741  50.290  19.099  1.00  0.00    -0.346 N 
ATOM      9  O   UNL     1      51.812  49.726  19.886  1.00  0.00    -0.269 OA
ATOM     10  H   UNL     1      49.170  51.089  18.847  1.00  0.00    +0.164 HD
BRANCH   8  11
ATOM     11  C   UNL     1      49.629  49.106  18.257  1.00  0.00    +0.184 C 
BRANCH  11  12
ATOM     12  C   UNL     1      48.552  49.166  17.116  1.00  0.00    +0.115 C 
ATOM     13  C   UNL     1      46.098  48.355  16.969  1.00  0.00    -0.008 C 
ATOM     14  C   UNL     1      46.516  46.879  16.873  1.00  0.00    +0.004 C 
ATOM     15  C   UNL     1      47.131  49.149  17.780  1.00  0.00    +0.073 C 
ATOM     16  C   UNL     1      48.024  46.693  16.696  1.00  0.00    +0.007 C 
ATOM     17  C   UNL     1      48.691  47.951  16.150  1.00  0.00    +0.070 C 
ATOM     18  C   UNL     1      44.701  48.480  17.578  1.00  0.00    +0.008 C 
BRANCH  12  19
ATOM     19  N   UNL     1      48.653  50.485  16.270  1.00  0.00    -0.333 N 
ATOM     20  C   UNL     1      47.756  51.632  16.675  1.00  0.00    +0.333 C 
ATOM     21  C   UNL     1      48.561  50.307  14.764  1.00  0.00    +0.333 C 
ATOM     22  H   UNL     1      49.607  50.828  16.436  1.00  0.00    +0.348 HD
ENDBRANCH  12  19
ENDBRANCH  11  12
ENDBRANCH   8  11
ENDBRANCH   1   7
BRANCH   4  23
ATOM     23  S   UNL     1      51.372  55.844  22.706  1.00  0.00    +0.241 S 
ATOM     24  O   UNL     1      51.470  55.461  24.097  1.00  0.00    -0.207 OA
ATOM     25  O   UNL     1      50.330  56.725  22.234  1.00  0.00    -0.207 OA
BRANCH  23  26
ATOM     26  N   UNL     1      52.877  56.459  22.288  1.00  0.00    -0.206 NA
ATOM     27  H   UNL     1      53.437  56.608  23.129  1.00  0.00    +0.141 HD
BRANCH  26  28
ATOM     28  C   UNL     1      53.112  57.404  21.170  1.00  0.00    +0.025 C 
ATOM     29  C   UNL     1      52.518  58.773  21.514  1.00  0.00    +0.028 C 
ATOM     30  C   UNL     1      54.642  57.554  21.042  1.00  0.00    +0.028 C 
ATOM     31  C   UNL     1      52.572  56.887  19.835  1.00  0.00    +0.028 C 
ENDBRANCH  26  28
ENDBRANCH  23  26
ENDBRANCH   4  23
TORSDOF 7
ENDMDL
MODEL 4
REMARK VINA RESULT:    -7.833      2.842      8.512
REMARK INTER + INTRA:         -11.535
REMARK INTER:                 -11.616
REMARK INTRA:                   0.081
REMARK UNBOUND:                -0.496
REMARK SMILES C[C@@H]1CCC[C@@](CNC(=O)c2ccc(S(=O)(=O)NC(C)(C)C)cc2)([NH+](C)C)C1
REMARK SMILES IDX 11 1 12 2 13 3 14 4 23 5 24 6 9 7 8 8 10 9 7 11 6 12 2 13
REMARK SMILES IDX 3 14 28 15 4 16 5 17 1 18 25 19 26 20 27 21 15 23 16 24
REMARK SMILES IDX 17 25 18 26 19 28 20 29 21 30 22 31
REMARK H PARENT 8 10 25 22 18 27
ROOT
ATOM      1  C   UNL     1      50.857  51.858  19.943  1.00  0.00    +0.039 A 
ATOM      2  C   UNL     1      51.018  52.856  18.970  1.00  0.00    +0.015 A 
ATOM      3  C   UNL     1      51.276  54.176  19.344  1.00  0.00    +0.022 A 
ATOM      4  C   UNL     1      51.376  54.500  20.699  1.00  0.00    +0.082 A 
ATOM      5  C   UNL     1      51.228  53.513  21.679  1.00  0.00    +0.022 A 
ATOM      6  C   UNL     1      50.965  52.192  21.301  1.00  0.00    +0.015 A 
ENDROOT
BRANCH   1   7
ATOM      7  C   UNL     1      50.645  50.458  19.480  1.00  0.00    +0.251 C 
ATOM      8  N   UNL     1      49.336  50.024  19.335  1.00  0.00    -0.346 N 
ATOM      9  O   UNL     1      51.602  49.725  19.263  1.00  0.00    -0.269 OA
ATOM     10  H   UNL     1      48.621  50.742  19.287  1.00  0.00    +0.164 HD
BRANCH   8  11
ATOM     11  C   UNL     1      49.047  48.759  18.672  1.00  0.00    +0.184 C 
BRANCH  11  12
ATOM     12  C   UNL     1      48.071  48.826  17.444  1.00  0.00    +0.115 C 
ATOM     13  C   UNL     1      48.304  49.818  15.064  1.00  0.00    -0.008 C 
ATOM     14  C   UNL     1      48.196  51.262  15.578  1.00  0.00    +0.004 C 
ATOM     15  C   UNL     1      48.932  48.917  16.137  1.00  0.00    +0.073 C 
ATOM     16  C   UNL     1      47.811  51.346  17.056  1.00  0.00    +0.007 C 
ATOM     17  C   UNL     1      47.134  50.067  17.540  1.00  0.00    +0.070 C 
ATOM     18  C   UNL     1      49.103  49.768  13.762  1.00  0.00    +0.008 C 
BRANCH  12  19
ATOM     19  N   UNL     1      47.178  47.540  17.321  1.00  0.00    -0.333 N 
ATOM     20  C   UNL     1      46.707  47.159  15.936  1.00  0.00    +0.333 C 
ATOM     21  C   UNL     1      45.995  47.470  18.272  1.00  0.00    +0.333 C 
ATOM     22  H   UNL     1      47.792  46.769  17.610  1.00  0.00    +0.348 HD
ENDBRANCH  12  19
ENDBRANCH  11  12
ENDBRANCH   8  11
ENDBRANCH   1   7
BRANCH   4  23
ATOM     23  S   UNL     1      51.805  56.162  21.163  1.00  0.00    +0.241 S 
ATOM     24  O   UNL     1      53.136  56.395  20.646  1.00  0.00    -0.207 OA
ATOM     25  O   UNL     1      51.493  56.340  22.562  1.00  0.00    -0.207 OA
BRANCH  23  26
ATOM     26  N   UNL     1      50.773  57.094  20.221  1.00  0.00    -0.206 NA
ATOM     27  H   UNL     1      51.280  57.893  19.838  1.00  0.00    +0.141 HD
BRANCH  26  28
ATOM     28  C   UNL     1      49.337  57.311  20.520  1.00  0.00    +0.025 C 
ATOM     29  C   UNL     1      49.188  57.968  21.896  1.00  0.00    +0.028 C 
ATOM     30  C   UNL     1      48.815  58.294  19.452  1.00  0.00    +0.028 C 
ATOM     31  C   UNL     1      48.513  56.026  20.428  1.00  0.00    +0.028 C 
ENDBRANCH  26  28
ENDBRANCH  23  26
ENDBRANCH   4  23
TORSDOF 7
ENDMDL
MODEL 5
REMARK VINA RESULT:    -7.774      1.978      3.178
REMARK INTER + INTRA:         -11.452
REMARK INTER:                 -11.346
REMARK INTRA:                  -0.106
REMARK UNBOUND:                -0.496
REMARK SMILES C[C@@H]1CCC[C@@](CNC(=O)c2ccc(S(=O)(=O)NC(C)(C)C)cc2)([NH+](C)C)C1
REMARK SMILES IDX 11 1 12 2 13 3 14 4 23 5 24 6 9 7 8 8 10 9 7 11 6 12 2 13
REMARK SMILES IDX 3 14 28 15 4 16 5 17 1 18 25 19 26 20 27 21 15 23 16 24
REMARK SMILES IDX 17 25 18 26 19 28 20 29 21 30 22 31
REMARK H PARENT 8 10 25 22 18 27
ROOT
ATOM      1  C   UNL     1      49.005  50.691  17.806  1.00  0.00    +0.039 A 
ATOM      2  C   UNL     1      48.949  49.583  18.664  1.00  0.00    +0.015 A 
ATOM      3  C   UNL     1      47.976  48.597  18.487  1.00  0.00    +0.022 A 
ATOM      4  C   UNL     1      47.056  48.720  17.443  1.00  0.00    +0.082 A 
ATOM      5  C   UNL     1      47.106  49.815  16.574  1.00  0.00    +0.022 A 
ATOM      6  C   UNL     1      48.079  50.803  16.757  1.00  0.00    +0.015 A 
ENDROOT
BRANCH   1   7
ATOM      7  C   UNL     1      50.103  51.678  18.009  1.00  0.00    +0.251 C 
ATOM      8  N   UNL     1      49.750  53.015  18.116  1.00  0.00    -0.346 N 
ATOM      9  O   UNL     1      51.269  51.306  18.055  1.00  0.00    -0.269 OA
ATOM     10  H   UNL     1      48.777  53.214  18.320  1.00  0.00    +0.164 HD
BRANCH   8  11
ATOM     11  C   UNL     1      50.731  54.004  18.543  1.00  0.00    +0.184 C 
BRANCH  11  12
ATOM     12  C   UNL     1      50.227  55.083  19.567  1.00  0.00    +0.115 C 
ATOM     13  C   UNL     1      51.450  56.879  20.974  1.00  0.00    -0.008 C 
ATOM     14  C   UNL     1      52.025  55.832  21.941  1.00  0.00    +0.004 C 
ATOM     15  C   UNL     1      51.255  56.266  19.580  1.00  0.00    +0.073 C 
ATOM     16  C   UNL     1      51.443  54.434  21.728  1.00  0.00    +0.007 C 
ATOM     17  C   UNL     1      50.104  54.482  21.000  1.00  0.00    +0.070 C 
ATOM     18  C   UNL     1      52.352  58.112  20.916  1.00  0.00    +0.008 C 
BRANCH  12  19
ATOM     19  N   UNL     1      48.834  55.685  19.162  1.00  0.00    -0.333 N 
ATOM     20  C   UNL     1      48.753  56.398  17.832  1.00  0.00    +0.333 C 
ATOM     21  C   UNL     1      48.161  56.548  20.216  1.00  0.00    +0.333 C 
ATOM     22  H   UNL     1      48.218  54.869  19.059  1.00  0.00    +0.348 HD
ENDBRANCH  12  19
ENDBRANCH  11  12
ENDBRANCH   8  11
ENDBRANCH   1   7
BRANCH   4  23
ATOM     23  S   UNL     1      45.885  47.411  17.162  1.00  0.00    +0.241 S 
ATOM     24  O   UNL     1      45.012  47.396  18.316  1.00  0.00    -0.207 OA
ATOM     25  O   UNL     1      46.610  46.233  16.745  1.00  0.00    -0.207 OA
BRANCH  23  26
ATOM     26  N   UNL     1      44.961  47.997  15.889  1.00  0.00    -0.206 NA
ATOM     27  H   UNL     1      44.085  48.382  16.245  1.00  0.00    +0.141 HD
BRANCH  26  28
ATOM     28  C   UNL     1      44.906  47.379  14.543  1.00  0.00    +0.025 C 
ATOM     29  C   UNL     1      44.861  45.853  14.675  1.00  0.00    +0.028 C 
ATOM     30  C   UNL     1      43.586  47.852  13.900  1.00  0.00    +0.028 C 
ATOM     31  C   UNL     1      46.060  47.822  13.641  1.00  0.00    +0.028 C 
ENDBRANCH  26  28
ENDBRANCH  23  26
ENDBRANCH   4  23
TORSDOF 7
ENDMDL
