MODEL 1
REMARK VINA RESULT:    -7.979      0.000      0.000
REMARK INTER + INTRA:         -14.633
REMARK INTER:                 -13.343
REMARK INTRA:                  -1.290
REMARK UNBOUND:                -1.290
REMARK SMILES CC(C)CCN(CCC(C)C)S(=O)(=O)NCc1ccc(S(N)(=O)=O)cc1
REMARK SMILES IDX 12 1 13 2 14 3 6 4 5 5 4 6 2 7 1 8 3 9 7 10 8 11 9 12 10 13
REMARK SMILES IDX 11 14 15 15 16 17 17 18 18 19 26 20 19 21 25 22 20 23 21 24
REMARK SMILES IDX 23 25 24 26 22 27
REMARK H PARENT 15 16 22 28 22 29
ROOT
ATOM      1  S   UNL     1      51.555  53.256  19.433  1.00  0.00    +0.279 S 
ATOM      2  O   UNL     1      52.044  52.892  20.739  1.00  0.00    -0.195 OA
ATOM      3  O   UNL     1      52.362  53.114  18.247  1.00  0.00    -0.195 OA
ENDROOT
BRANCH   1   4
ATOM      4  N   UNL     1      50.940  54.824  19.490  1.00  0.00    -0.189 NA
BRANCH   4   5
ATOM      5  C   UNL     1      49.515  55.058  19.150  1.00  0.00    +0.104 C 
BRANCH   5   6
ATOM      6  C   UNL     1      48.662  55.501  20.342  1.00  0.00    +0.020 C 
BRANCH   6   7
ATOM      7  C   UNL     1      47.907  56.820  20.084  1.00  0.00    -0.016 C 
ATOM      8  C   UNL     1      48.289  57.855  21.145  1.00  0.00    +0.007 C 
ATOM      9  C   UNL     1      48.180  57.382  18.689  1.00  0.00    +0.007 C 
ENDBRANCH   6   7
ENDBRANCH   5   6
ENDBRANCH   4   5
BRANCH   4  10
ATOM     10  C   UNL     1      51.866  55.913  19.085  1.00  0.00    +0.104 C 
BRANCH  10  11
ATOM     11  C   UNL     1      52.713  56.367  20.277  1.00  0.00    +0.020 C 
BRANCH  11  12
ATOM     12  C   UNL     1      51.966  57.235  21.311  1.00  0.00    -0.016 C 
ATOM     13  C   UNL     1      51.597  56.383  22.529  1.00  0.00    +0.007 C 
ATOM     14  C   UNL     1      52.791  58.443  21.760  1.00  0.00    +0.007 C 
ENDBRANCH  11  12
ENDBRANCH  10  11
ENDBRANCH   4  10
ENDBRANCH   1   4
BRANCH   1  15
ATOM     15  N   UNL     1      50.149  52.409  19.163  1.00  0.00    -0.198 NA
ATOM     16  H   UNL     1      49.833  51.900  19.982  1.00  0.00    +0.142 HD
BRANCH  15  17
ATOM     17  C   UNL     1      50.015  51.725  17.881  1.00  0.00    +0.135 C 
BRANCH  17  18
ATOM     18  C   UNL     1      48.865  50.744  17.926  1.00  0.00    -0.033 A 
ATOM     19  C   UNL     1      47.685  50.986  17.206  1.00  0.00    +0.006 A 
ATOM     20  C   UNL     1      48.983  49.562  18.675  1.00  0.00    +0.006 A 
ATOM     21  C   UNL     1      46.635  50.066  17.242  1.00  0.00    +0.022 A 
ATOM     22  C   UNL     1      47.937  48.640  18.717  1.00  0.00    +0.022 A 
ATOM     23  C   UNL     1      46.770  48.894  17.991  1.00  0.00    +0.082 A 
BRANCH  23  24
ATOM     24  S   UNL     1      45.433  47.732  18.042  1.00  0.00    +0.238 S 
ATOM     25  O   UNL     1      44.319  48.281  17.307  1.00  0.00    -0.207 OA
ATOM     26  O   UNL     1      45.306  47.237  19.393  1.00  0.00    -0.207 OA
BRANCH  24  27
ATOM     27  N   UNL     1      46.065  46.455  17.144  1.00  0.00    -0.225 NA
ATOM     28  H   UNL     1      47.083  46.540  17.125  1.00  0.00    +0.137 HD
ATOM     29  H   UNL     1      45.673  46.390  16.205  1.00  0.00    +0.137 HD
ENDBRANCH  24  27
ENDBRANCH  23  24
ENDBRANCH  17  18
ENDBRANCH  15  17
ENDBRANCH   1  15
TORSDOF 12
ENDMDL
MODEL 2
REMARK VINA RESULT:    -7.926      3.026      8.439
REMARK INTER + INTRA:         -14.545
REMARK INTER:                 -12.887
REMARK INTRA:                  -1.658
REMARK UNBOUND:                -1.290
REMARK SMILES CC(C)CCN(CCC(C)C)S(=O)(=O)NCc1ccc(S(N)(=O)=O)cc1
REMARK SMILES IDX 12 1 13 2 14 3 6 4 5 5 4 6 2 7 1 8 3 9 7 10 8 11 9 12 10 13
REMARK SMILES IDX 11 14 15 15 16 17 17 18 18 19 26 20 19 21 25 22 20 23 21 24
REMARK SMILES IDX 23 25 24 26 22 27
REMARK H PARENT 15 16 22 28 22 29
ROOT
ATOM      1  S   UNL     1      49.406  50.858  16.870  1.00  0.00    +0.279 S 
ATOM      2  O   UNL     1      48.046  51.214  16.550  1.00  0.00    -0.195 OA
ATOM      3  O   UNL     1      50.320  50.358  15.874  1.00  0.00    -0.195 OA
ENDROOT
BRANCH   1   4
ATOM      4  N   UNL     1      49.407  49.809  18.188  1.00  0.00    -0.189 NA
BRANCH   4   5
ATOM      5  C   UNL     1      50.625  49.703  19.030  1.00  0.00    +0.104 C 
BRANCH   5   6
ATOM      6  C   UNL     1      50.388  50.049  20.503  1.00  0.00    +0.020 C 
BRANCH   6   7
ATOM      7  C   UNL     1      51.562  50.822  21.135  1.00  0.00    -0.016 C 
ATOM      8  C   UNL     1      52.616  51.131  20.069  1.00  0.00    +0.007 C 
ATOM      9  C   UNL     1      51.109  52.119  21.806  1.00  0.00    +0.007 C 
ENDBRANCH   6   7
ENDBRANCH   5   6
ENDBRANCH   4   5
BRANCH   4  10
ATOM     10  C   UNL     1      48.645  48.544  18.028  1.00  0.00    +0.104 C 
BRANCH  10  11
ATOM     11  C   UNL     1      47.383  48.566  18.895  1.00  0.00    +0.020 C 
BRANCH  11  12
ATOM     12  C   UNL     1      46.120  47.995  18.218  1.00  0.00    -0.016 C 
ATOM     13  C   UNL     1      45.221  47.340  19.270  1.00  0.00    +0.007 C 
ATOM     14  C   UNL     1      45.331  49.067  17.464  1.00  0.00    +0.007 C 
ENDBRANCH  11  12
ENDBRANCH  10  11
ENDBRANCH   4  10
ENDBRANCH   1   4
BRANCH   1  15
ATOM     15  N   UNL     1      50.128  52.187  17.562  1.00  0.00    -0.198 NA
ATOM     16  H   UNL     1      50.996  51.962  18.035  1.00  0.00    +0.142 HD
BRANCH  15  17
ATOM     17  C   UNL     1      49.257  53.152  18.226  1.00  0.00    +0.135 C 
BRANCH  17  18
ATOM     18  C   UNL     1      50.078  54.138  19.026  1.00  0.00    -0.033 A 
ATOM     19  C   UNL     1      49.472  54.978  19.972  1.00  0.00    +0.006 A 
ATOM     20  C   UNL     1      51.469  54.200  18.844  1.00  0.00    +0.006 A 
ATOM     21  C   UNL     1      50.241  55.874  20.717  1.00  0.00    +0.022 A 
ATOM     22  C   UNL     1      52.243  55.095  19.583  1.00  0.00    +0.022 A 
ATOM     23  C   UNL     1      51.624  55.921  20.524  1.00  0.00    +0.082 A 
BRANCH  23  24
ATOM     24  S   UNL     1      52.598  57.066  21.464  1.00  0.00    +0.238 S 
ATOM     25  O   UNL     1      51.861  58.301  21.591  1.00  0.00    -0.207 OA
ATOM     26  O   UNL     1      53.958  57.017  20.981  1.00  0.00    -0.207 OA
BRANCH  24  27
ATOM     27  N   UNL     1      52.622  56.322  22.975  1.00  0.00    -0.225 NA
ATOM     28  H   UNL     1      51.729  55.846  23.120  1.00  0.00    +0.137 HD
ATOM     29  H   UNL     1      52.837  56.964  23.737  1.00  0.00    +0.137 HD
ENDBRANCH  24  27
ENDBRANCH  23  24
ENDBRANCH  17  18
ENDBRANCH  15  17
ENDBRANCH   1  15
TORSDOF 12
ENDMDL
MODEL 3
REMARK VINA RESULT:    -7.724      0.652      2.850
REMARK INTER + INTRA:         -14.206
REMARK INTER:                 -13.205
REMARK INTRA:                  -1.001
REMARK UNBOUND:                -1.290
REMARK SMILES CC(C)CCN(CCC(C)C)S(=O)(=O)NCc1ccc(S(N)(=O)=O)cc1
REMARK SMILES IDX 12 1 13 2 14 3 6 4 5 5 4 6 2 7 1 8 3 9 7 10 8 11 9 12 10 13
REMARK SMILES IDX 11 14 15 15 16 17 17 18 18 19 26 20 19 21 25 22 20 23 21 24
REMARK SMILES IDX 23 25 24 26 22 27
REMARK H PARENT 15 16 22 28 22 29
ROOT
ATOM      1  S   UNL     1      50.951  53.447  19.319  1.00  0.00    +0.279 S 
ATOM      2  O   UNL     1      51.042  52.972  20.677  1.00  0.00    -0.195 OA
ATOM      3  O   UNL     1      52.023  53.269  18.373  1.00  0.00    -0.195 OA
ENDROOT
BRANCH   1   4
ATOM      4  N   UNL     1      50.496  55.069  19.331  1.00  0.00    -0.189 NA
BRANCH   4   5
ATOM      5  C   UNL     1      51.537  56.116  19.181  1.00  0.00    +0.104 C 
BRANCH   5   6
ATOM      6  C   UNL     1      52.622  56.066  20.261  1.00  0.00    +0.020 C 
BRANCH   6   7
ATOM      7  C   UNL     1      52.282  56.927  21.494  1.00  0.00    -0.016 C 
ATOM      8  C   UNL     1      51.906  56.024  22.671  1.00  0.00    +0.007 C 
ATOM      9  C   UNL     1      53.434  57.848  21.894  1.00  0.00    +0.007 C 
ENDBRANCH   6   7
ENDBRANCH   5   6
ENDBRANCH   4   5
BRANCH   4  10
ATOM     10  C   UNL     1      49.367  55.433  20.225  1.00  0.00    +0.104 C 
BRANCH  10  11
ATOM     11  C   UNL     1      48.491  56.507  19.572  1.00  0.00    +0.020 C 
BRANCH  11  12
ATOM     12  C   UNL     1      48.662  57.926  20.151  1.00  0.00    -0.016 C 
ATOM     13  C   UNL     1      47.452  58.786  19.776  1.00  0.00    +0.007 C 
ATOM     14  C   UNL     1      48.834  57.915  21.671  1.00  0.00    +0.007 C 
ENDBRANCH  11  12
ENDBRANCH  10  11
ENDBRANCH   4  10
ENDBRANCH   1   4
BRANCH   1  15
ATOM     15  N   UNL     1      49.591  52.775  18.637  1.00  0.00    -0.198 NA
ATOM     16  H   UNL     1      48.845  52.627  19.309  1.00  0.00    +0.142 HD
BRANCH  15  17
ATOM     17  C   UNL     1      49.789  51.723  17.645  1.00  0.00    +0.135 C 
BRANCH  17  18
ATOM     18  C   UNL     1      48.684  50.696  17.738  1.00  0.00    -0.033 A 
ATOM     19  C   UNL     1      48.879  49.489  18.427  1.00  0.00    +0.006 A 
ATOM     20  C   UNL     1      47.434  50.958  17.152  1.00  0.00    +0.006 A 
ATOM     21  C   UNL     1      47.847  48.554  18.520  1.00  0.00    +0.022 A 
ATOM     22  C   UNL     1      46.399  50.027  17.240  1.00  0.00    +0.022 A 
ATOM     23  C   UNL     1      46.609  48.832  17.933  1.00  0.00    +0.082 A 
BRANCH  23  24
ATOM     24  S   UNL     1      45.302  47.640  18.045  1.00  0.00    +0.238 S 
ATOM     25  O   UNL     1      44.167  48.131  17.300  1.00  0.00    -0.207 OA
ATOM     26  O   UNL     1      45.201  47.197  19.415  1.00  0.00    -0.207 OA
BRANCH  24  27
ATOM     27  N   UNL     1      45.958  46.344  17.192  1.00  0.00    -0.225 NA
ATOM     28  H   UNL     1      46.678  45.904  17.768  1.00  0.00    +0.137 HD
ATOM     29  H   UNL     1      46.314  46.606  16.274  1.00  0.00    +0.137 HD
ENDBRANCH  24  27
ENDBRANCH  23  24
ENDBRANCH  17  18
ENDBRANCH  15  17
ENDBRANCH   1  15
TORSDOF 12
ENDMDL
MODEL 4
REMARK VINA RESULT:    -7.579      2.170      3.061
REMARK INTER + INTRA:         -13.964
REMARK INTER:                 -12.328
REMARK INTRA:                  -1.636
REMARK UNBOUND:                -1.290
REMARK SMILES CC(C)CCN(CCC(C)C)S(=O)(=O)NCc1ccc(S(N)(=O)=O)cc1
REMARK SMILES IDX 12 1 13 2 14 3 6 4 5 5 4 6 2 7 1 8 3 9 7 10 8 11 9 12 10 13
REMARK SMILES IDX 11 14 15 15 16 17 17 18 18 19 26 20 19 21 25 22 20 23 21 24
REMARK SMILES IDX 23 25 24 26 22 27
REMARK H PARENT 15 16 22 28 22 29
ROOT
ATOM      1  S   UNL     1      52.092  50.942  19.157  1.00  0.00    +0.279 S 
ATOM      2  O   UNL     1      52.738  50.522  20.376  1.00  0.00    -0.195 OA
ATOM      3  O   UNL     1      52.842  51.363  18.001  1.00  0.00    -0.195 OA
ENDROOT
BRANCH   1   4
ATOM      4  N   UNL     1      50.940  52.117  19.519  1.00  0.00    -0.189 NA
BRANCH   4   5
ATOM      5  C   UNL     1      50.475  53.032  18.446  1.00  0.00    +0.104 C 
BRANCH   5   6
ATOM      6  C   UNL     1      48.955  53.208  18.402  1.00  0.00    +0.020 C 
BRANCH   6   7
ATOM      7  C   UNL     1      48.365  52.980  16.996  1.00  0.00    -0.016 C 
ATOM      8  C   UNL     1      47.233  51.952  17.067  1.00  0.00    +0.007 C 
ATOM      9  C   UNL     1      47.851  54.274  16.365  1.00  0.00    +0.007 C 
ENDBRANCH   6   7
ENDBRANCH   5   6
ENDBRANCH   4   5
BRANCH   4  10
ATOM     10  C   UNL     1      51.019  52.727  20.871  1.00  0.00    +0.104 C 
BRANCH  10  11
ATOM     11  C   UNL     1      51.654  54.119  20.794  1.00  0.00    +0.020 C 
BRANCH  11  12
ATOM     12  C   UNL     1      50.867  55.233  21.515  1.00  0.00    -0.016 C 
ATOM     13  C   UNL     1      51.672  55.739  22.715  1.00  0.00    +0.007 C 
ATOM     14  C   UNL     1      50.537  56.404  20.587  1.00  0.00    +0.007 C 
ENDBRANCH  11  12
ENDBRANCH  10  11
ENDBRANCH   4  10
ENDBRANCH   1   4
BRANCH   1  15
ATOM     15  N   UNL     1      51.094  49.707  18.661  1.00  0.00    -0.198 NA
ATOM     16  H   UNL     1      51.029  49.635  17.651  1.00  0.00    +0.142 HD
BRANCH  15  17
ATOM     17  C   UNL     1      49.856  49.506  19.408  1.00  0.00    +0.135 C 
BRANCH  17  18
ATOM     18  C   UNL     1      48.780  48.952  18.502  1.00  0.00    -0.033 A 
ATOM     19  C   UNL     1      47.502  48.656  19.001  1.00  0.00    +0.006 A 
ATOM     20  C   UNL     1      49.048  48.753  17.137  1.00  0.00    +0.006 A 
ATOM     21  C   UNL     1      46.510  48.160  18.153  1.00  0.00    +0.022 A 
ATOM     22  C   UNL     1      48.062  48.254  16.285  1.00  0.00    +0.022 A 
ATOM     23  C   UNL     1      46.794  47.969  16.798  1.00  0.00    +0.082 A 
BRANCH  23  24
ATOM     24  S   UNL     1      45.536  47.330  15.724  1.00  0.00    +0.238 S 
ATOM     25  O   UNL     1      44.293  48.002  16.022  1.00  0.00    -0.207 OA
ATOM     26  O   UNL     1      45.653  45.891  15.685  1.00  0.00    -0.207 OA
BRANCH  24  27
ATOM     27  N   UNL     1      46.070  47.874  14.222  1.00  0.00    -0.225 NA
ATOM     28  H   UNL     1      45.587  47.347  13.492  1.00  0.00    +0.137 HD
ATOM     29  H   UNL     1      47.083  47.829  14.115  1.00  0.00    +0.137 HD
ENDBRANCH  24  27
ENDBRANCH  23  24
ENDBRANCH  17  18
ENDBRANCH  15  17
ENDBRANCH   1  15
TORSDOF 12
ENDMDL
MODEL 5
REMARK VINA RESULT:    -7.446      2.936      8.015
REMARK INTER + INTRA:         -13.742
REMARK INTER:                 -12.638
REMARK INTRA:                  -1.104
REMARK UNBOUND:                -1.290
REMARK SMILES CC(C)CCN(CCC(C)C)S(=O)(=O)NCc1ccc(S(N)(=O)=O)cc1
REMARK SMILES IDX 12 1 13 2 14 3 6 4 5 5 4 6 2 7 1 8 3 9 7 10 8 11 9 12 10 13
REMARK SMILES IDX 11 14 15 15 16 17 17 18 18 19 26 20 19 21 25 22 20 23 21 24
REMARK SMILES IDX 23 25 24 26 22 27
REMARK H PARENT 15 16 22 28 22 29
ROOT
ATOM      1  S   UNL     1      48.691  51.094  16.735  1.00  0.00    +0.279 S 
ATOM      2  O   UNL     1      47.283  51.352  16.907  1.00  0.00    -0.195 OA
ATOM      3  O   UNL     1      49.265  50.817  15.442  1.00  0.00    -0.195 OA
ENDROOT
BRANCH   1   4
ATOM      4  N   UNL     1      49.168  49.891  17.814  1.00  0.00    -0.189 NA
BRANCH   4   5
ATOM      5  C   UNL     1      48.435  48.601  17.834  1.00  0.00    +0.104 C 
BRANCH   5   6
ATOM      6  C   UNL     1      47.273  48.568  18.831  1.00  0.00    +0.020 C 
BRANCH   6   7
ATOM      7  C   UNL     1      46.007  47.902  18.257  1.00  0.00    -0.016 C 
ATOM      8  C   UNL     1      45.192  47.271  19.389  1.00  0.00    +0.007 C 
ATOM      9  C   UNL     1      45.135  48.887  17.478  1.00  0.00    +0.007 C 
ENDBRANCH   6   7
ENDBRANCH   5   6
ENDBRANCH   4   5
BRANCH   4  10
ATOM     10  C   UNL     1      49.666  50.348  19.136  1.00  0.00    +0.104 C 
BRANCH  10  11
ATOM     11  C   UNL     1      50.770  49.415  19.645  1.00  0.00    +0.020 C 
BRANCH  11  12
ATOM     12  C   UNL     1      52.171  50.055  19.733  1.00  0.00    -0.016 C 
ATOM     13  C   UNL     1      52.495  50.770  18.418  1.00  0.00    +0.007 C 
ATOM     14  C   UNL     1      52.285  51.043  20.896  1.00  0.00    +0.007 C 
ENDBRANCH  11  12
ENDBRANCH  10  11
ENDBRANCH   4  10
ENDBRANCH   1   4
BRANCH   1  15
ATOM     15  N   UNL     1      49.524  52.388  17.365  1.00  0.00    -0.198 NA
ATOM     16  H   UNL     1      50.383  52.115  17.830  1.00  0.00    +0.142 HD
BRANCH  15  17
ATOM     17  C   UNL     1      48.742  53.438  18.010  1.00  0.00    +0.135 C 
BRANCH  17  18
ATOM     18  C   UNL     1      49.630  54.295  18.883  1.00  0.00    -0.033 A 
ATOM     19  C   UNL     1      51.022  54.114  18.891  1.00  0.00    +0.006 A 
ATOM     20  C   UNL     1      49.065  55.304  19.680  1.00  0.00    +0.006 A 
ATOM     21  C   UNL     1      51.835  54.920  19.689  1.00  0.00    +0.022 A 
ATOM     22  C   UNL     1      49.872  56.112  20.482  1.00  0.00    +0.022 A 
ATOM     23  C   UNL     1      51.255  55.920  20.474  1.00  0.00    +0.082 A 
BRANCH  23  24
ATOM     24  S   UNL     1      52.289  56.938  21.494  1.00  0.00    +0.238 S 
ATOM     25  O   UNL     1      51.612  58.192  21.727  1.00  0.00    -0.207 OA
ATOM     26  O   UNL     1      53.642  56.865  20.995  1.00  0.00    -0.207 OA
BRANCH  24  27
ATOM     27  N   UNL     1      52.287  56.073  22.940  1.00  0.00    -0.225 NA
ATOM     28  H   UNL     1      53.212  55.660  23.075  1.00  0.00    +0.137 HD
ATOM     29  H   UNL     1      51.548  55.373  22.989  1.00  0.00    +0.137 HD
ENDBRANCH  24  27
ENDBRANCH  23  24
ENDBRANCH  17  18
ENDBRANCH  15  17
ENDBRANCH   1  15
TORSDOF 12
ENDMDL
