MODEL 1
REMARK VINA RESULT:    -9.900      0.000      0.000
REMARK INTER + INTRA:         -16.094
REMARK INTER:                 -14.530
REMARK INTRA:                  -1.564
REMARK UNBOUND:                -1.564
REMARK SMILES O=C(NNc1ccc(S(=O)(=O)NC2CC2)cc1)c1ccccc1C(=O)c1ccccc1
REMARK SMILES IDX 4 1 3 3 2 4 1 5 18 7 23 8 22 9 21 10 19 11 20 12 24 13 25 14
REMARK SMILES IDX 26 15 29 16 28 17 30 18 27 19 31 20 5 21 6 22 17 23 7 24
REMARK SMILES IDX 16 25 8 26 9 27 10 28 11 29 12 30 13 32 14 33 15 34
REMARK H PARENT 4 2 3 6 12 31
ROOT
ATOM      1  N   UNL     1      51.476  50.904  20.164  1.00  0.00    -0.298 N 
ATOM      2  H   UNL     1      52.115  50.569  19.435  1.00  0.00    +0.188 HD
ENDROOT
BRANCH   1   3
ATOM      3  N   UNL     1      50.137  50.643  19.810  1.00  0.00    -0.266 N 
ATOM      4  C   UNL     1      49.906  50.195  18.525  1.00  0.00    +0.270 C 
ATOM      5  O   UNL     1      50.758  50.131  17.635  1.00  0.00    -0.267 OA
ATOM      6  H   UNL     1      49.441  50.622  20.544  1.00  0.00    +0.191 HD
BRANCH   4   7
ATOM      7  C   UNL     1      48.524  49.760  18.244  1.00  0.00    +0.052 A 
ATOM      8  C   UNL     1      47.788  50.292  17.183  1.00  0.00    +0.035 A 
ATOM      9  C   UNL     1      46.488  49.837  16.939  1.00  0.00    +0.013 A 
ATOM     10  C   UNL     1      45.935  48.838  17.741  1.00  0.00    +0.001 A 
ATOM     11  C   UNL     1      47.974  48.737  19.034  1.00  0.00    +0.014 A 
ATOM     12  C   UNL     1      46.676  48.288  18.787  1.00  0.00    +0.001 A 
BRANCH   8  13
ATOM     13  C   UNL     1      48.356  51.314  16.298  1.00  0.00    +0.193 C 
ATOM     14  O   UNL     1      48.857  50.935  15.248  1.00  0.00    -0.289 OA
BRANCH  13  15
ATOM     15  C   UNL     1      48.313  52.755  16.663  1.00  0.00    +0.023 A 
ATOM     16  C   UNL     1      48.304  55.447  17.422  1.00  0.00    +0.000 A 
ATOM     17  C   UNL     1      47.574  55.031  16.307  1.00  0.00    +0.001 A 
ATOM     18  C   UNL     1      49.042  54.522  18.157  1.00  0.00    +0.001 A 
ATOM     19  C   UNL     1      47.576  53.690  15.927  1.00  0.00    +0.012 A 
ATOM     20  C   UNL     1      49.047  53.180  17.780  1.00  0.00    +0.012 A 
ENDBRANCH  13  15
ENDBRANCH   8  13
ENDBRANCH   4   7
ENDBRANCH   1   3
BRANCH   1  21
ATOM     21  C   UNL     1      51.746  52.278  20.433  1.00  0.00    +0.054 A 
ATOM     22  C   UNL     1      52.251  53.186  19.482  1.00  0.00    +0.029 A 
ATOM     23  C   UNL     1      51.365  52.786  21.687  1.00  0.00    +0.029 A 
ATOM     24  C   UNL     1      52.440  54.542  19.798  1.00  0.00    +0.024 A 
ATOM     25  C   UNL     1      51.547  54.142  22.011  1.00  0.00    +0.024 A 
ATOM     26  C   UNL     1      52.085  55.010  21.063  1.00  0.00    +0.082 A 
BRANCH  26  27
ATOM     27  S   UNL     1      52.300  56.717  21.478  1.00  0.00    +0.240 S 
ATOM     28  O   UNL     1      53.308  56.797  22.514  1.00  0.00    -0.207 OA
ATOM     29  O   UNL     1      52.393  57.484  20.252  1.00  0.00    -0.207 OA
BRANCH  27  30
ATOM     30  N   UNL     1      50.774  57.094  22.130  1.00  0.00    -0.208 NA
ATOM     31  H   UNL     1      50.393  56.227  22.516  1.00  0.00    +0.141 HD
BRANCH  30  32
ATOM     32  C   UNL     1      49.838  57.676  21.142  1.00  0.00    +0.070 C 
ATOM     33  C   UNL     1      48.501  58.242  21.560  1.00  0.00    +0.022 C 
ATOM     34  C   UNL     1      48.570  56.944  20.804  1.00  0.00    +0.022 C 
ENDBRANCH  30  32
ENDBRANCH  27  30
ENDBRANCH  26  27
ENDBRANCH   1  21
TORSDOF 8
ENDMDL
MODEL 2
REMARK VINA RESULT:    -9.766      2.867      7.983
REMARK INTER + INTRA:         -15.897
REMARK INTER:                 -14.216
REMARK INTRA:                  -1.681
REMARK UNBOUND:                -1.564
REMARK SMILES O=C(NNc1ccc(S(=O)(=O)NC2CC2)cc1)c1ccccc1C(=O)c1ccccc1
REMARK SMILES IDX 4 1 3 3 2 4 1 5 18 7 23 8 22 9 21 10 19 11 20 12 24 13 25 14
REMARK SMILES IDX 26 15 29 16 28 17 30 18 27 19 31 20 5 21 6 22 17 23 7 24
REMARK SMILES IDX 16 25 8 26 9 27 10 28 11 29 12 30 13 32 14 33 15 34
REMARK H PARENT 4 2 3 6 12 31
ROOT
ATOM      1  N   UNL     1      48.321  54.127  17.035  1.00  0.00    -0.298 N 
ATOM      2  H   UNL     1      48.826  54.525  16.236  1.00  0.00    +0.188 HD
ENDROOT
BRANCH   1   3
ATOM      3  N   UNL     1      48.733  54.734  18.237  1.00  0.00    -0.266 N 
ATOM      4  C   UNL     1      48.784  56.113  18.257  1.00  0.00    +0.270 C 
ATOM      5  O   UNL     1      48.623  56.840  17.273  1.00  0.00    -0.267 OA
ATOM      6  H   UNL     1      48.798  54.159  19.068  1.00  0.00    +0.191 HD
BRANCH   4   7
ATOM      7  C   UNL     1      49.041  56.719  19.577  1.00  0.00    +0.052 A 
ATOM      8  C   UNL     1      50.243  56.514  20.258  1.00  0.00    +0.035 A 
ATOM      9  C   UNL     1      50.456  57.124  21.498  1.00  0.00    +0.013 A 
ATOM     10  C   UNL     1      49.476  57.953  22.046  1.00  0.00    +0.001 A 
ATOM     11  C   UNL     1      48.067  57.574  20.119  1.00  0.00    +0.014 A 
ATOM     12  C   UNL     1      48.283  58.179  21.359  1.00  0.00    +0.001 A 
BRANCH   8  13
ATOM     13  C   UNL     1      51.308  55.681  19.690  1.00  0.00    +0.193 C 
ATOM     14  O   UNL     1      52.055  56.201  18.872  1.00  0.00    -0.289 OA
BRANCH  13  15
ATOM     15  C   UNL     1      51.476  54.262  20.103  1.00  0.00    +0.023 A 
ATOM     16  C   UNL     1      51.868  51.585  20.812  1.00  0.00    +0.000 A 
ATOM     17  C   UNL     1      50.979  52.379  21.538  1.00  0.00    +0.001 A 
ATOM     18  C   UNL     1      52.566  52.127  19.735  1.00  0.00    +0.001 A 
ATOM     19  C   UNL     1      50.780  53.713  21.186  1.00  0.00    +0.012 A 
ATOM     20  C   UNL     1      52.371  53.461  19.380  1.00  0.00    +0.012 A 
ENDBRANCH  13  15
ENDBRANCH   8  13
ENDBRANCH   4   7
ENDBRANCH   1   3
BRANCH   1  21
ATOM     21  C   UNL     1      48.465  52.708  17.023  1.00  0.00    +0.054 A 
ATOM     22  C   UNL     1      49.057  51.965  18.063  1.00  0.00    +0.029 A 
ATOM     23  C   UNL     1      47.865  51.998  15.969  1.00  0.00    +0.029 A 
ATOM     24  C   UNL     1      49.115  50.562  18.014  1.00  0.00    +0.024 A 
ATOM     25  C   UNL     1      47.914  50.594  15.914  1.00  0.00    +0.024 A 
ATOM     26  C   UNL     1      48.541  49.887  16.937  1.00  0.00    +0.082 A 
BRANCH  26  27
ATOM     27  S   UNL     1      48.588  48.118  16.862  1.00  0.00    +0.240 S 
ATOM     28  O   UNL     1      49.206  47.746  15.607  1.00  0.00    -0.207 OA
ATOM     29  O   UNL     1      49.061  47.613  18.134  1.00  0.00    -0.207 OA
BRANCH  27  30
ATOM     30  N   UNL     1      46.928  47.745  16.818  1.00  0.00    -0.208 NA
ATOM     31  H   UNL     1      46.571  48.079  15.920  1.00  0.00    +0.141 HD
BRANCH  30  32
ATOM     32  C   UNL     1      46.160  48.341  17.935  1.00  0.00    +0.070 C 
ATOM     33  C   UNL     1      45.481  47.479  18.973  1.00  0.00    +0.022 C 
ATOM     34  C   UNL     1      44.663  48.219  17.951  1.00  0.00    +0.022 C 
ENDBRANCH  30  32
ENDBRANCH  27  30
ENDBRANCH  26  27
ENDBRANCH   1  21
TORSDOF 8
ENDMDL
MODEL 3
REMARK VINA RESULT:    -9.686      1.746      3.618
REMARK INTER + INTRA:         -15.779
REMARK INTER:                 -14.610
REMARK INTRA:                  -1.170
REMARK UNBOUND:                -1.564
REMARK SMILES O=C(NNc1ccc(S(=O)(=O)NC2CC2)cc1)c1ccccc1C(=O)c1ccccc1
REMARK SMILES IDX 4 1 3 3 2 4 1 5 18 7 23 8 22 9 21 10 19 11 20 12 24 13 25 14
REMARK SMILES IDX 26 15 29 16 28 17 30 18 27 19 31 20 5 21 6 22 17 23 7 24
REMARK SMILES IDX 16 25 8 26 9 27 10 28 11 29 12 30 13 32 14 33 15 34
REMARK H PARENT 4 2 3 6 12 31
ROOT
ATOM      1  N   UNL     1      51.125  51.326  19.746  1.00  0.00    -0.298 N 
ATOM      2  H   UNL     1      51.852  50.682  20.075  1.00  0.00    +0.188 HD
ENDROOT
BRANCH   1   3
ATOM      3  N   UNL     1      50.907  51.166  18.363  1.00  0.00    -0.266 N 
ATOM      4  C   UNL     1      50.215  50.041  17.965  1.00  0.00    +0.270 C 
ATOM      5  O   UNL     1      49.890  49.111  18.708  1.00  0.00    -0.267 OA
ATOM      6  H   UNL     1      51.103  51.949  17.752  1.00  0.00    +0.191 HD
BRANCH   4   7
ATOM      7  C   UNL     1      49.847  49.995  16.537  1.00  0.00    +0.052 A 
ATOM      8  C   UNL     1      48.534  50.202  16.110  1.00  0.00    +0.035 A 
ATOM      9  C   UNL     1      48.231  50.170  14.745  1.00  0.00    +0.013 A 
ATOM     10  C   UNL     1      49.243  49.952  13.809  1.00  0.00    +0.001 A 
ATOM     11  C   UNL     1      50.868  49.800  15.591  1.00  0.00    +0.014 A 
ATOM     12  C   UNL     1      50.560  49.768  14.230  1.00  0.00    +0.001 A 
BRANCH   8  13
ATOM     13  C   UNL     1      47.455  50.474  17.066  1.00  0.00    +0.193 C 
ATOM     14  O   UNL     1      47.297  51.634  17.422  1.00  0.00    -0.289 OA
BRANCH  13  15
ATOM     15  C   UNL     1      46.584  49.380  17.571  1.00  0.00    +0.023 A 
ATOM     16  C   UNL     1      44.887  47.331  18.433  1.00  0.00    +0.000 A 
ATOM     17  C   UNL     1      46.049  47.626  19.149  1.00  0.00    +0.001 A 
ATOM     18  C   UNL     1      44.573  48.053  17.285  1.00  0.00    +0.001 A 
ATOM     19  C   UNL     1      46.895  48.647  18.722  1.00  0.00    +0.012 A 
ATOM     20  C   UNL     1      45.417  49.076  16.854  1.00  0.00    +0.012 A 
ENDBRANCH  13  15
ENDBRANCH   8  13
ENDBRANCH   4   7
ENDBRANCH   1   3
BRANCH   1  21
ATOM     21  C   UNL     1      51.467  52.657  20.128  1.00  0.00    +0.054 A 
ATOM     22  C   UNL     1      51.884  53.656  19.227  1.00  0.00    +0.029 A 
ATOM     23  C   UNL     1      51.252  53.029  21.467  1.00  0.00    +0.029 A 
ATOM     24  C   UNL     1      52.150  54.966  19.663  1.00  0.00    +0.024 A 
ATOM     25  C   UNL     1      51.512  54.337  21.911  1.00  0.00    +0.024 A 
ATOM     26  C   UNL     1      51.960  55.296  21.005  1.00  0.00    +0.082 A 
BRANCH  26  27
ATOM     27  S   UNL     1      52.274  56.943  21.574  1.00  0.00    +0.240 S 
ATOM     28  O   UNL     1      53.225  56.860  22.662  1.00  0.00    -0.207 OA
ATOM     29  O   UNL     1      52.491  57.796  20.424  1.00  0.00    -0.207 OA
BRANCH  27  30
ATOM     30  N   UNL     1      50.744  57.381  22.178  1.00  0.00    -0.208 NA
ATOM     31  H   UNL     1      50.395  56.582  22.713  1.00  0.00    +0.141 HD
BRANCH  30  32
ATOM     32  C   UNL     1      49.779  57.758  21.121  1.00  0.00    +0.070 C 
ATOM     33  C   UNL     1      48.346  58.103  21.448  1.00  0.00    +0.022 C 
ATOM     34  C   UNL     1      48.672  56.809  20.757  1.00  0.00    +0.022 C 
ENDBRANCH  30  32
ENDBRANCH  27  30
ENDBRANCH  26  27
ENDBRANCH   1  21
TORSDOF 8
ENDMDL
MODEL 4
REMARK VINA RESULT:    -9.378      3.109      8.307
REMARK INTER + INTRA:         -15.328
REMARK INTER:                 -13.867
REMARK INTRA:                  -1.460
REMARK UNBOUND:                -1.564
REMARK SMILES O=C(NNc1ccc(S(=O)(=O)NC2CC2)cc1)c1ccccc1C(=O)c1ccccc1
REMARK SMILES IDX 4 1 3 3 2 4 1 5 18 7 23 8 22 9 21 10 19 11 20 12 24 13 25 14
REMARK SMILES IDX 26 15 29 16 28 17 30 18 27 19 31 20 5 21 6 22 17 23 7 24
REMARK SMILES IDX 16 25 8 26 9 27 10 28 11 29 12 30 13 32 14 33 15 34
REMARK H PARENT 4 2 3 6 12 31
ROOT
ATOM      1  N   UNL     1      49.238  53.537  17.563  1.00  0.00    -0.298 N 
ATOM      2  H   UNL     1      50.226  53.407  17.319  1.00  0.00    +0.188 HD
ENDROOT
BRANCH   1   3
ATOM      3  N   UNL     1      49.112  54.305  18.737  1.00  0.00    -0.266 N 
ATOM      4  C   UNL     1      49.869  55.456  18.817  1.00  0.00    +0.270 C 
ATOM      5  O   UNL     1      50.734  55.791  18.003  1.00  0.00    -0.267 OA
ATOM      6  H   UNL     1      48.361  54.084  19.378  1.00  0.00    +0.191 HD
BRANCH   4   7
ATOM      7  C   UNL     1      49.580  56.327  19.972  1.00  0.00    +0.052 A 
ATOM      8  C   UNL     1      50.469  56.446  21.043  1.00  0.00    +0.035 A 
ATOM      9  C   UNL     1      50.167  57.298  22.110  1.00  0.00    +0.013 A 
ATOM     10  C   UNL     1      48.988  58.044  22.095  1.00  0.00    +0.001 A 
ATOM     11  C   UNL     1      48.406  57.098  19.949  1.00  0.00    +0.014 A 
ATOM     12  C   UNL     1      48.108  57.946  21.017  1.00  0.00    +0.001 A 
BRANCH   8  13
ATOM     13  C   UNL     1      51.735  55.705  21.068  1.00  0.00    +0.193 C 
ATOM     14  O   UNL     1      52.767  56.357  21.160  1.00  0.00    -0.289 OA
BRANCH  13  15
ATOM     15  C   UNL     1      51.757  54.220  20.996  1.00  0.00    +0.023 A 
ATOM     16  C   UNL     1      51.725  51.424  20.936  1.00  0.00    +0.000 A 
ATOM     17  C   UNL     1      52.461  52.137  19.988  1.00  0.00    +0.001 A 
ATOM     18  C   UNL     1      51.000  52.105  21.912  1.00  0.00    +0.001 A 
ATOM     19  C   UNL     1      52.480  53.530  20.017  1.00  0.00    +0.012 A 
ATOM     20  C   UNL     1      51.015  53.499  21.944  1.00  0.00    +0.012 A 
ENDBRANCH  13  15
ENDBRANCH   8  13
ENDBRANCH   4   7
ENDBRANCH   1   3
BRANCH   1  21
ATOM     21  C   UNL     1      48.598  52.265  17.631  1.00  0.00    +0.054 A 
ATOM     22  C   UNL     1      47.306  52.002  17.135  1.00  0.00    +0.029 A 
ATOM     23  C   UNL     1      49.352  51.179  18.108  1.00  0.00    +0.029 A 
ATOM     24  C   UNL     1      46.757  50.709  17.182  1.00  0.00    +0.024 A 
ATOM     25  C   UNL     1      48.812  49.881  18.155  1.00  0.00    +0.024 A 
ATOM     26  C   UNL     1      47.517  49.657  17.693  1.00  0.00    +0.082 A 
BRANCH  26  27
ATOM     27  S   UNL     1      46.851  48.017  17.749  1.00  0.00    +0.240 S 
ATOM     28  O   UNL     1      47.915  47.097  17.407  1.00  0.00    -0.207 OA
ATOM     29  O   UNL     1      46.069  47.876  18.959  1.00  0.00    -0.207 OA
BRANCH  27  30
ATOM     30  N   UNL     1      45.715  48.080  16.482  1.00  0.00    -0.208 NA
ATOM     31  H   UNL     1      44.894  47.557  16.793  1.00  0.00    +0.141 HD
BRANCH  30  32
ATOM     32  C   UNL     1      46.226  47.531  15.205  1.00  0.00    +0.070 C 
ATOM     33  C   UNL     1      46.503  48.423  14.019  1.00  0.00    +0.022 C 
ATOM     34  C   UNL     1      45.323  47.491  14.005  1.00  0.00    +0.022 C 
ENDBRANCH  30  32
ENDBRANCH  27  30
ENDBRANCH  26  27
ENDBRANCH   1  21
TORSDOF 8
ENDMDL
MODEL 5
REMARK VINA RESULT:    -9.281      3.789      8.284
REMARK INTER + INTRA:         -15.185
REMARK INTER:                 -14.511
REMARK INTRA:                  -0.673
REMARK UNBOUND:                -1.564
REMARK SMILES O=C(NNc1ccc(S(=O)(=O)NC2CC2)cc1)c1ccccc1C(=O)c1ccccc1
REMARK SMILES IDX 4 1 3 3 2 4 1 5 18 7 23 8 22 9 21 10 19 11 20 12 24 13 25 14
REMARK SMILES IDX 26 15 29 16 28 17 30 18 27 19 31 20 5 21 6 22 17 23 7 24
REMARK SMILES IDX 16 25 8 26 9 27 10 28 11 29 12 30 13 32 14 33 15 34
REMARK H PARENT 4 2 3 6 12 31
ROOT
ATOM      1  N   UNL     1      49.279  51.629  16.195  1.00  0.00    -0.298 N 
ATOM      2  H   UNL     1      49.849  51.577  15.344  1.00  0.00    +0.188 HD
ENDROOT
BRANCH   1   3
ATOM      3  N   UNL     1      50.097  51.734  17.337  1.00  0.00    -0.266 N 
ATOM      4  C   UNL     1      49.679  52.595  18.330  1.00  0.00    +0.270 C 
ATOM      5  O   UNL     1      48.721  53.368  18.238  1.00  0.00    -0.267 OA
ATOM      6  H   UNL     1      50.842  51.059  17.458  1.00  0.00    +0.191 HD
BRANCH   4   7
ATOM      7  C   UNL     1      50.457  52.545  19.583  1.00  0.00    +0.052 A 
ATOM      8  C   UNL     1      50.993  53.698  20.160  1.00  0.00    +0.035 A 
ATOM      9  C   UNL     1      51.707  53.610  21.360  1.00  0.00    +0.013 A 
ATOM     10  C   UNL     1      51.867  52.375  21.989  1.00  0.00    +0.001 A 
ATOM     11  C   UNL     1      50.598  51.307  20.231  1.00  0.00    +0.014 A 
ATOM     12  C   UNL     1      51.314  51.225  21.427  1.00  0.00    +0.001 A 
BRANCH   8  13
ATOM     13  C   UNL     1      50.808  55.016  19.545  1.00  0.00    +0.193 C 
ATOM     14  O   UNL     1      51.399  55.236  18.497  1.00  0.00    -0.289 OA
BRANCH  13  15
ATOM     15  C   UNL     1      49.925  56.038  20.169  1.00  0.00    +0.023 A 
ATOM     16  C   UNL     1      48.185  57.921  21.286  1.00  0.00    +0.000 A 
ATOM     17  C   UNL     1      49.488  57.797  21.771  1.00  0.00    +0.001 A 
ATOM     18  C   UNL     1      47.747  57.104  20.246  1.00  0.00    +0.001 A 
ATOM     19  C   UNL     1      50.357  56.859  21.216  1.00  0.00    +0.012 A 
ATOM     20  C   UNL     1      48.614  56.165  19.688  1.00  0.00    +0.012 A 
ENDBRANCH  13  15
ENDBRANCH   8  13
ENDBRANCH   4   7
ENDBRANCH   1   3
BRANCH   1  21
ATOM     21  C   UNL     1      48.379  50.523  16.227  1.00  0.00    +0.054 A 
ATOM     22  C   UNL     1      48.678  49.246  15.713  1.00  0.00    +0.029 A 
ATOM     23  C   UNL     1      47.171  50.682  16.926  1.00  0.00    +0.029 A 
ATOM     24  C   UNL     1      47.767  48.182  15.829  1.00  0.00    +0.024 A 
ATOM     25  C   UNL     1      46.255  49.623  17.051  1.00  0.00    +0.024 A 
ATOM     26  C   UNL     1      46.560  48.381  16.499  1.00  0.00    +0.082 A 
BRANCH  26  27
ATOM     27  S   UNL     1      45.403  47.052  16.671  1.00  0.00    +0.240 S 
ATOM     28  O   UNL     1      45.983  45.878  16.053  1.00  0.00    -0.207 OA
ATOM     29  O   UNL     1      44.908  47.041  18.032  1.00  0.00    -0.207 OA
BRANCH  27  30
ATOM     30  N   UNL     1      44.106  47.618  15.724  1.00  0.00    -0.208 NA
ATOM     31  H   UNL     1      43.248  47.269  16.155  1.00  0.00    +0.141 HD
BRANCH  30  32
ATOM     32  C   UNL     1      44.183  47.196  14.306  1.00  0.00    +0.070 C 
ATOM     33  C   UNL     1      44.818  48.076  13.255  1.00  0.00    +0.022 C 
ATOM     34  C   UNL     1      43.327  47.885  13.282  1.00  0.00    +0.022 C 
ENDBRANCH  30  32
ENDBRANCH  27  30
ENDBRANCH  26  27
ENDBRANCH   1  21
TORSDOF 8
ENDMDL
