MODEL 1
REMARK VINA RESULT:    -7.498      0.000      0.000
REMARK INTER + INTRA:         -12.647
REMARK INTER:                 -11.442
REMARK INTRA:                  -1.205
REMARK UNBOUND:                -1.205
REMARK SMILES CCOCCCNC(=S)NNC(=O)Cc1csc(-c2cccnc2)n1
REMARK SMILES IDX 6 1 5 2 4 3 3 4 2 5 1 6 7 7 8 8 9 9 10 10 11 13 12 14 13 15
REMARK SMILES IDX 14 17 15 18 16 19 25 20 17 21 18 22 19 23 20 24 24 25 21 26
REMARK SMILES IDX 23 27 22 28
REMARK H PARENT 7 11 10 12 11 16
ROOT
ATOM      1  C   UNL     1      48.945  49.454  14.955  1.00  0.00    +0.117 C 
ENDROOT
BRANCH   1   2
ATOM      2  C   UNL     1      48.571  48.223  15.782  1.00  0.00    +0.050 C 
BRANCH   2   3
ATOM      3  C   UNL     1      47.067  48.139  16.016  1.00  0.00    +0.162 C 
BRANCH   3   4
ATOM      4  O   UNL     1      46.757  48.789  17.246  1.00  0.00    -0.382 OA
BRANCH   4   5
ATOM      5  C   UNL     1      45.409  48.597  17.672  1.00  0.00    +0.156 C 
ATOM      6  C   UNL     1      45.313  47.536  18.754  1.00  0.00    +0.035 C 
ENDBRANCH   4   5
ENDBRANCH   3   4
ENDBRANCH   2   3
ENDBRANCH   1   2
BRANCH   1   7
ATOM      7  N   UNL     1      48.371  50.675  15.502  1.00  0.00    -0.361 N 
ATOM      8  C   UNL     1      48.900  51.529  16.421  1.00  0.00    +0.185 C 
ATOM      9  S   UNL     1      47.967  52.830  16.913  1.00  0.00    -0.039 S 
ATOM     10  N   UNL     1      50.150  51.229  16.899  1.00  0.00    -0.274 N 
ATOM     11  H   UNL     1      47.429  50.914  15.215  1.00  0.00    +0.162 HD
ATOM     12  H   UNL     1      50.758  50.597  16.379  1.00  0.00    +0.190 HD
BRANCH  10  13
ATOM     13  N   UNL     1      50.838  52.130  17.734  1.00  0.00    -0.268 N 
ATOM     14  C   UNL     1      52.190  51.895  17.931  1.00  0.00    +0.244 C 
ATOM     15  O   UNL     1      52.743  50.846  17.599  1.00  0.00    -0.273 OA
ATOM     16  H   UNL     1      50.515  53.102  17.704  1.00  0.00    +0.191 HD
BRANCH  14  17
ATOM     17  C   UNL     1      52.920  53.016  18.639  1.00  0.00    +0.158 C 
BRANCH  17  18
ATOM     18  C   UNL     1      52.132  53.521  19.801  1.00  0.00    +0.061 A 
ATOM     19  C   UNL     1      52.126  53.013  21.084  1.00  0.00    +0.091 A 
ATOM     20  N   UNL     1      51.315  54.628  19.613  1.00  0.00    -0.241 NA
ATOM     21  S   UNL     1      51.084  53.938  22.074  1.00  0.00    -0.122 S 
ATOM     22  C   UNL     1      50.706  54.963  20.737  1.00  0.00    +0.125 A 
BRANCH  22  23
ATOM     23  C   UNL     1      49.760  56.083  20.860  1.00  0.00    +0.029 A 
ATOM     24  C   UNL     1      49.938  57.175  21.720  1.00  0.00    +0.014 A 
ATOM     25  C   UNL     1      48.599  56.093  20.086  1.00  0.00    +0.122 A 
ATOM     26  C   UNL     1      48.979  58.188  21.780  1.00  0.00    +0.021 A 
ATOM     27  N   UNL     1      47.642  57.059  20.129  1.00  0.00    -0.264 NA
ATOM     28  C   UNL     1      47.858  58.085  20.975  1.00  0.00    +0.111 A 
ENDBRANCH  22  23
ENDBRANCH  17  18
ENDBRANCH  14  17
ENDBRANCH  10  13
ENDBRANCH   1   7
TORSDOF 9
ENDMDL
MODEL 2
REMARK VINA RESULT:    -7.478      1.678      2.037
REMARK INTER + INTRA:         -12.617
REMARK INTER:                 -11.208
REMARK INTRA:                  -1.409
REMARK UNBOUND:                -1.205
REMARK SMILES CCOCCCNC(=S)NNC(=O)Cc1csc(-c2cccnc2)n1
REMARK SMILES IDX 6 1 5 2 4 3 3 4 2 5 1 6 7 7 8 8 9 9 10 10 11 13 12 14 13 15
REMARK SMILES IDX 14 17 15 18 16 19 25 20 17 21 18 22 19 23 20 24 24 25 21 26
REMARK SMILES IDX 23 27 22 28
REMARK H PARENT 7 11 10 12 11 16
ROOT
ATOM      1  C   UNL     1      46.848  48.886  15.178  1.00  0.00    +0.117 C 
ENDROOT
BRANCH   1   2
ATOM      2  C   UNL     1      46.391  47.457  15.472  1.00  0.00    +0.050 C 
BRANCH   2   3
ATOM      3  C   UNL     1      46.897  46.972  16.825  1.00  0.00    +0.162 C 
BRANCH   3   4
ATOM      4  O   UNL     1      47.403  48.087  17.554  1.00  0.00    -0.382 OA
BRANCH   4   5
ATOM      5  C   UNL     1      46.729  48.318  18.790  1.00  0.00    +0.156 C 
ATOM      6  C   UNL     1      45.428  47.540  18.868  1.00  0.00    +0.035 C 
ENDBRANCH   4   5
ENDBRANCH   3   4
ENDBRANCH   2   3
ENDBRANCH   1   2
BRANCH   1   7
ATOM      7  N   UNL     1      48.214  48.932  14.678  1.00  0.00    -0.361 N 
ATOM      8  C   UNL     1      49.255  49.697  15.111  1.00  0.00    +0.185 C 
ATOM      9  S   UNL     1      50.709  49.582  14.288  1.00  0.00    -0.039 S 
ATOM     10  N   UNL     1      49.010  50.534  16.169  1.00  0.00    -0.274 N 
ATOM     11  H   UNL     1      48.431  48.366  13.866  1.00  0.00    +0.162 HD
ATOM     12  H   UNL     1      48.211  50.367  16.779  1.00  0.00    +0.190 HD
BRANCH  10  13
ATOM     13  N   UNL     1      50.060  51.249  16.780  1.00  0.00    -0.268 N 
ATOM     14  C   UNL     1      50.598  50.706  17.935  1.00  0.00    +0.244 C 
ATOM     15  O   UNL     1      50.071  49.779  18.550  1.00  0.00    -0.273 OA
ATOM     16  H   UNL     1      50.686  51.753  16.143  1.00  0.00    +0.191 HD
BRANCH  14  17
ATOM     17  C   UNL     1      51.864  51.386  18.411  1.00  0.00    +0.158 C 
BRANCH  17  18
ATOM     18  C   UNL     1      51.590  52.276  19.577  1.00  0.00    +0.061 A 
ATOM     19  C   UNL     1      52.073  52.134  20.861  1.00  0.00    +0.091 A 
ATOM     20  N   UNL     1      50.776  53.384  19.384  1.00  0.00    -0.241 NA
ATOM     21  S   UNL     1      51.504  53.411  21.844  1.00  0.00    -0.122 S 
ATOM     22  C   UNL     1      50.651  54.080  20.501  1.00  0.00    +0.125 A 
BRANCH  22  23
ATOM     23  C   UNL     1      49.838  55.299  20.626  1.00  0.00    +0.029 A 
ATOM     24  C   UNL     1      48.611  55.499  19.979  1.00  0.00    +0.014 A 
ATOM     25  C   UNL     1      50.285  56.347  21.433  1.00  0.00    +0.122 A 
ATOM     26  C   UNL     1      47.913  56.698  20.146  1.00  0.00    +0.021 A 
ATOM     27  N   UNL     1      49.634  57.528  21.609  1.00  0.00    -0.264 NA
ATOM     28  C   UNL     1      48.461  57.673  20.961  1.00  0.00    +0.111 A 
ENDBRANCH  22  23
ENDBRANCH  17  18
ENDBRANCH  14  17
ENDBRANCH  10  13
ENDBRANCH   1   7
TORSDOF 9
ENDMDL
MODEL 3
REMARK VINA RESULT:    -6.959      2.472      7.796
REMARK INTER + INTRA:         -11.825
REMARK INTER:                 -10.625
REMARK INTRA:                  -1.200
REMARK UNBOUND:                -1.205
REMARK SMILES CCOCCCNC(=S)NNC(=O)Cc1csc(-c2cccnc2)n1
REMARK SMILES IDX 6 1 5 2 4 3 3 4 2 5 1 6 7 7 8 8 9 9 10 10 11 13 12 14 13 15
REMARK SMILES IDX 14 17 15 18 16 19 25 20 17 21 18 22 19 23 20 24 24 25 21 26
REMARK SMILES IDX 23 27 22 28
REMARK H PARENT 7 11 10 12 11 16
ROOT
ATOM      1  C   UNL     1      48.903  56.458  20.560  1.00  0.00    +0.117 C 
ENDROOT
BRANCH   1   2
ATOM      2  C   UNL     1      50.129  57.371  20.540  1.00  0.00    +0.050 C 
BRANCH   2   3
ATOM      3  C   UNL     1      51.419  56.586  20.754  1.00  0.00    +0.162 C 
BRANCH   3   4
ATOM      4  O   UNL     1      51.843  56.760  22.104  1.00  0.00    -0.382 OA
BRANCH   4   5
ATOM      5  C   UNL     1      51.683  55.594  22.910  1.00  0.00    +0.156 C 
ATOM      6  C   UNL     1      51.679  54.331  22.067  1.00  0.00    +0.035 C 
ENDBRANCH   4   5
ENDBRANCH   3   4
ENDBRANCH   2   3
ENDBRANCH   1   2
BRANCH   1   7
ATOM      7  N   UNL     1      48.501  56.051  19.221  1.00  0.00    -0.361 N 
ATOM      8  C   UNL     1      48.811  54.908  18.549  1.00  0.00    +0.185 C 
ATOM      9  S   UNL     1      48.253  54.747  16.978  1.00  0.00    -0.039 S 
ATOM     10  N   UNL     1      49.592  53.994  19.208  1.00  0.00    -0.274 N 
ATOM     11  H   UNL     1      47.963  56.715  18.677  1.00  0.00    +0.162 HD
ATOM     12  H   UNL     1      49.671  54.026  20.223  1.00  0.00    +0.190 HD
BRANCH  10  13
ATOM     13  N   UNL     1      49.837  52.722  18.652  1.00  0.00    -0.268 N 
ATOM     14  C   UNL     1      51.155  52.411  18.359  1.00  0.00    +0.244 C 
ATOM     15  O   UNL     1      52.057  53.249  18.355  1.00  0.00    -0.273 OA
ATOM     16  H   UNL     1      49.221  51.969  18.973  1.00  0.00    +0.191 HD
BRANCH  14  17
ATOM     17  C   UNL     1      51.384  50.962  17.988  1.00  0.00    +0.158 C 
BRANCH  17  18
ATOM     18  C   UNL     1      50.233  50.418  17.210  1.00  0.00    +0.061 A 
ATOM     19  C   UNL     1      50.121  50.342  15.837  1.00  0.00    +0.091 A 
ATOM     20  N   UNL     1      49.146  49.910  17.908  1.00  0.00    -0.241 NA
ATOM     21  S   UNL     1      48.631  49.621  15.411  1.00  0.00    -0.122 S 
ATOM     22  C   UNL     1      48.225  49.448  17.080  1.00  0.00    +0.125 A 
BRANCH  22  23
ATOM     23  C   UNL     1      46.947  48.863  17.512  1.00  0.00    +0.029 A 
ATOM     24  C   UNL     1      46.756  48.196  18.729  1.00  0.00    +0.014 A 
ATOM     25  C   UNL     1      45.829  48.959  16.682  1.00  0.00    +0.122 A 
ATOM     26  C   UNL     1      45.507  47.659  19.050  1.00  0.00    +0.021 A 
ATOM     27  N   UNL     1      44.603  48.439  16.961  1.00  0.00    -0.264 NA
ATOM     28  C   UNL     1      44.472  47.803  18.142  1.00  0.00    +0.111 A 
ENDBRANCH  22  23
ENDBRANCH  17  18
ENDBRANCH  14  17
ENDBRANCH  10  13
ENDBRANCH   1   7
TORSDOF 9
ENDMDL
MODEL 4
REMARK VINA RESULT:    -6.867      2.597      7.114
REMARK INTER + INTRA:         -11.685
REMARK INTER:                 -10.124
REMARK INTRA:                  -1.561
REMARK UNBOUND:                -1.205
REMARK SMILES CCOCCCNC(=S)NNC(=O)Cc1csc(-c2cccnc2)n1
REMARK SMILES IDX 6 1 5 2 4 3 3 4 2 5 1 6 7 7 8 8 9 9 10 10 11 13 12 14 13 15
REMARK SMILES IDX 14 17 15 18 16 19 25 20 17 21 18 22 19 23 20 24 24 25 21 26
REMARK SMILES IDX 23 27 22 28
REMARK H PARENT 7 11 10 12 11 16
ROOT
ATOM      1  C   UNL     1      49.705  57.926  20.990  1.00  0.00    +0.117 C 
ENDROOT
BRANCH   1   2
ATOM      2  C   UNL     1      48.259  57.438  20.892  1.00  0.00    +0.050 C 
BRANCH   2   3
ATOM      3  C   UNL     1      47.884  57.077  19.459  1.00  0.00    +0.162 C 
BRANCH   3   4
ATOM      4  O   UNL     1      48.274  55.730  19.207  1.00  0.00    -0.382 OA
BRANCH   4   5
ATOM      5  C   UNL     1      48.736  55.506  17.877  1.00  0.00    +0.156 C 
ATOM      6  C   UNL     1      48.629  54.042  17.489  1.00  0.00    +0.035 C 
ENDBRANCH   4   5
ENDBRANCH   3   4
ENDBRANCH   2   3
ENDBRANCH   1   2
BRANCH   1   7
ATOM      7  N   UNL     1      50.473  57.165  21.965  1.00  0.00    -0.361 N 
ATOM      8  C   UNL     1      50.914  55.879  21.887  1.00  0.00    +0.185 C 
ATOM      9  S   UNL     1      51.724  55.245  23.209  1.00  0.00    -0.039 S 
ATOM     10  N   UNL     1      50.621  55.192  20.737  1.00  0.00    -0.274 N 
ATOM     11  H   UNL     1      50.673  57.614  22.851  1.00  0.00    +0.162 HD
ATOM     12  H   UNL     1      50.371  55.698  19.888  1.00  0.00    +0.190 HD
BRANCH  10  13
ATOM     13  N   UNL     1      51.163  53.913  20.504  1.00  0.00    -0.268 N 
ATOM     14  C   UNL     1      52.015  53.782  19.419  1.00  0.00    +0.244 C 
ATOM     15  O   UNL     1      52.138  54.649  18.553  1.00  0.00    -0.273 OA
ATOM     16  H   UNL     1      51.352  53.349  21.338  1.00  0.00    +0.191 HD
BRANCH  14  17
ATOM     17  C   UNL     1      52.744  52.457  19.356  1.00  0.00    +0.158 C 
BRANCH  17  18
ATOM     18  C   UNL     1      51.803  51.316  19.552  1.00  0.00    +0.061 A 
ATOM     19  C   UNL     1      51.896  50.315  20.497  1.00  0.00    +0.091 A 
ATOM     20  N   UNL     1      50.692  51.227  18.723  1.00  0.00    -0.241 NA
ATOM     21  S   UNL     1      50.572  49.245  20.349  1.00  0.00    -0.122 S 
ATOM     22  C   UNL     1      49.949  50.181  19.039  1.00  0.00    +0.125 A 
BRANCH  22  23
ATOM     23  C   UNL     1      48.714  49.804  18.334  1.00  0.00    +0.029 A 
ATOM     24  C   UNL     1      47.764  48.903  18.833  1.00  0.00    +0.014 A 
ATOM     25  C   UNL     1      48.437  50.359  17.084  1.00  0.00    +0.122 A 
ATOM     26  C   UNL     1      46.625  48.593  18.086  1.00  0.00    +0.021 A 
ATOM     27  N   UNL     1      47.343  50.071  16.328  1.00  0.00    -0.264 NA
ATOM     28  C   UNL     1      46.462  49.196  16.850  1.00  0.00    +0.111 A 
ENDBRANCH  22  23
ENDBRANCH  17  18
ENDBRANCH  14  17
ENDBRANCH  10  13
ENDBRANCH   1   7
TORSDOF 9
ENDMDL
MODEL 5
REMARK VINA RESULT:    -6.852      3.462      9.453
REMARK INTER + INTRA:         -11.662
REMARK INTER:                 -11.045
REMARK INTRA:                  -0.617
REMARK UNBOUND:                -1.205
REMARK SMILES CCOCCCNC(=S)NNC(=O)Cc1csc(-c2cccnc2)n1
REMARK SMILES IDX 6 1 5 2 4 3 3 4 2 5 1 6 7 7 8 8 9 9 10 10 11 13 12 14 13 15
REMARK SMILES IDX 14 17 15 18 16 19 25 20 17 21 18 22 19 23 20 24 24 25 21 26
REMARK SMILES IDX 23 27 22 28
REMARK H PARENT 7 11 10 12 11 16
ROOT
ATOM      1  C   UNL     1      52.658  53.761  19.155  1.00  0.00    +0.117 C 
ENDROOT
BRANCH   1   2
ATOM      2  C   UNL     1      51.880  54.537  20.219  1.00  0.00    +0.050 C 
BRANCH   2   3
ATOM      3  C   UNL     1      52.312  55.998  20.278  1.00  0.00    +0.162 C 
BRANCH   3   4
ATOM      4  O   UNL     1      52.715  56.305  21.610  1.00  0.00    -0.382 OA
BRANCH   4   5
ATOM      5  C   UNL     1      53.187  57.640  21.773  1.00  0.00    +0.156 C 
ATOM      6  C   UNL     1      54.301  57.961  20.791  1.00  0.00    +0.035 C 
ENDBRANCH   4   5
ENDBRANCH   3   4
ENDBRANCH   2   3
ENDBRANCH   1   2
BRANCH   1   7
ATOM      7  N   UNL     1      52.787  52.351  19.493  1.00  0.00    -0.361 N 
ATOM      8  C   UNL     1      52.336  51.265  18.805  1.00  0.00    +0.185 C 
ATOM      9  S   UNL     1      52.577  49.753  19.482  1.00  0.00    -0.039 S 
ATOM     10  N   UNL     1      51.682  51.507  17.625  1.00  0.00    -0.274 N 
ATOM     11  H   UNL     1      53.221  52.124  20.379  1.00  0.00    +0.162 HD
ATOM     12  H   UNL     1      51.801  52.400  17.147  1.00  0.00    +0.190 HD
BRANCH  10  13
ATOM     13  N   UNL     1      51.315  50.446  16.774  1.00  0.00    -0.268 N 
ATOM     14  C   UNL     1      50.021  50.461  16.277  1.00  0.00    +0.244 C 
ATOM     15  O   UNL     1      49.146  51.213  16.708  1.00  0.00    -0.273 OA
ATOM     16  H   UNL     1      52.059  50.075  16.176  1.00  0.00    +0.191 HD
BRANCH  14  17
ATOM     17  C   UNL     1      49.758  49.436  15.195  1.00  0.00    +0.158 C 
BRANCH  17  18
ATOM     18  C   UNL     1      48.603  48.563  15.551  1.00  0.00    +0.061 A 
ATOM     19  C   UNL     1      48.530  47.668  16.598  1.00  0.00    +0.091 A 
ATOM     20  N   UNL     1      47.452  48.643  14.778  1.00  0.00    -0.241 NA
ATOM     21  S   UNL     1      46.997  46.914  16.619  1.00  0.00    -0.122 S 
ATOM     22  C   UNL     1      46.517  47.828  15.235  1.00  0.00    +0.125 A 
BRANCH  22  23
ATOM     23  C   UNL     1      45.190  47.669  14.621  1.00  0.00    +0.029 A 
ATOM     24  C   UNL     1      44.857  48.115  13.335  1.00  0.00    +0.014 A 
ATOM     25  C   UNL     1      44.170  47.038  15.335  1.00  0.00    +0.122 A 
ATOM     26  C   UNL     1      43.565  47.933  12.838  1.00  0.00    +0.021 A 
ATOM     27  N   UNL     1      42.900  46.854  14.884  1.00  0.00    -0.264 NA
ATOM     28  C   UNL     1      42.630  47.305  13.643  1.00  0.00    +0.111 A 
ENDBRANCH  22  23
ENDBRANCH  17  18
ENDBRANCH  14  17
ENDBRANCH  10  13
ENDBRANCH   1   7
TORSDOF 9
ENDMDL
