MODEL 1
REMARK VINA RESULT:    -8.988      0.000      0.000
REMARK INTER + INTRA:         -12.510
REMARK INTER:                 -11.615
REMARK INTRA:                  -0.895
REMARK UNBOUND:                -0.895
REMARK SMILES C[C@H]1CCC[C@](CNC(=O)CN2C(=O)NC3(CCCC3)C2=O)([NH+](C)C)C1
REMARK SMILES IDX 8 1 9 2 10 3 7 5 6 6 2 7 3 8 26 9 4 10 5 11 1 12 23 13 24 14
REMARK SMILES IDX 25 15 11 17 12 18 21 19 13 20 22 21 16 22 15 23 14 24 17 25
REMARK SMILES IDX 20 26 18 27 19 28
REMARK H PARENT 8 4 23 16 15 29
ROOT
ATOM      1  N   UNL     1      50.280  49.218  18.561  1.00  0.00    -0.348 N 
ATOM      2  C   UNL     1      50.744  49.184  19.861  1.00  0.00    +0.240 C 
ATOM      3  O   UNL     1      50.100  48.671  20.767  1.00  0.00    -0.273 OA
ATOM      4  H   UNL     1      50.966  49.402  17.835  1.00  0.00    +0.163 HD
ENDROOT
BRANCH   1   5
ATOM      5  C   UNL     1      49.074  48.502  18.180  1.00  0.00    +0.184 C 
BRANCH   5   6
ATOM      6  C   UNL     1      48.209  49.199  17.080  1.00  0.00    +0.115 C 
ATOM      7  C   UNL     1      46.423  48.533  15.351  1.00  0.00    -0.008 C 
ATOM      8  C   UNL     1      45.273  48.580  16.378  1.00  0.00    +0.004 C 
ATOM      9  C   UNL     1      47.740  48.144  16.041  1.00  0.00    +0.073 C 
ATOM     10  C   UNL     1      45.749  48.927  17.794  1.00  0.00    +0.007 C 
ATOM     11  C   UNL     1      46.962  49.856  17.756  1.00  0.00    +0.070 C 
ATOM     12  C   UNL     1      46.086  47.563  14.219  1.00  0.00    +0.008 C 
BRANCH   6  13
ATOM     13  N   UNL     1      48.979  50.360  16.366  1.00  0.00    -0.333 N 
ATOM     14  C   UNL     1      48.224  51.633  16.074  1.00  0.00    +0.333 C 
ATOM     15  C   UNL     1      49.738  49.943  15.124  1.00  0.00    +0.333 C 
ATOM     16  H   UNL     1      49.705  50.655  17.027  1.00  0.00    +0.348 HD
ENDBRANCH   6  13
ENDBRANCH   5   6
ENDBRANCH   1   5
BRANCH   2  17
ATOM     17  C   UNL     1      52.099  49.868  20.046  1.00  0.00    +0.230 C 
BRANCH  17  18
ATOM     18  N   UNL     1      51.982  51.237  19.630  1.00  0.00    -0.253 N 
ATOM     19  C   UNL     1      51.360  52.210  20.358  1.00  0.00    +0.256 C 
ATOM     20  C   UNL     1      52.316  51.688  18.395  1.00  0.00    +0.325 C 
ATOM     21  O   UNL     1      50.892  52.065  21.477  1.00  0.00    -0.272 OA
ATOM     22  C   UNL     1      51.342  53.498  19.516  1.00  0.00    +0.121 C 
ATOM     23  N   UNL     1      52.034  53.032  18.337  1.00  0.00    -0.323 N 
ATOM     24  O   UNL     1      52.748  51.021  17.466  1.00  0.00    -0.248 OA
ATOM     25  C   UNL     1      49.918  53.955  19.226  1.00  0.00    +0.039 C 
ATOM     26  C   UNL     1      52.046  54.658  20.225  1.00  0.00    +0.039 C 
ATOM     27  C   UNL     1      49.645  54.964  20.331  1.00  0.00    +0.003 C 
ATOM     28  C   UNL     1      50.961  55.706  20.476  1.00  0.00    +0.003 C 
ATOM     29  H   UNL     1      52.139  53.548  17.479  1.00  0.00    +0.166 HD
ENDBRANCH  17  18
ENDBRANCH   2  17
TORSDOF 5
ENDMDL
MODEL 2
REMARK VINA RESULT:    -8.524      1.098      2.448
REMARK INTER + INTRA:         -11.910
REMARK INTER:                 -11.191
REMARK INTRA:                  -0.719
REMARK UNBOUND:                -0.895
REMARK SMILES C[C@H]1CCC[C@](CNC(=O)CN2C(=O)NC3(CCCC3)C2=O)([NH+](C)C)C1
REMARK SMILES IDX 8 1 9 2 10 3 7 5 6 6 2 7 3 8 26 9 4 10 5 11 1 12 23 13 24 14
REMARK SMILES IDX 25 15 11 17 12 18 21 19 13 20 22 21 16 22 15 23 14 24 17 25
REMARK SMILES IDX 20 26 18 27 19 28
REMARK H PARENT 8 4 23 16 15 29
ROOT
ATOM      1  N   UNL     1      50.378  49.056  18.771  1.00  0.00    -0.348 N 
ATOM      2  C   UNL     1      50.901  49.162  20.045  1.00  0.00    +0.240 C 
ATOM      3  O   UNL     1      50.303  48.747  21.029  1.00  0.00    -0.273 OA
ATOM      4  H   UNL     1      51.028  49.164  17.999  1.00  0.00    +0.163 HD
ENDROOT
BRANCH   1   5
ATOM      5  C   UNL     1      49.162  48.298  18.525  1.00  0.00    +0.184 C 
BRANCH   5   6
ATOM      6  C   UNL     1      48.185  48.934  17.482  1.00  0.00    +0.115 C 
ATOM      7  C   UNL     1      47.919  51.167  16.232  1.00  0.00    -0.008 C 
ATOM      8  C   UNL     1      48.944  50.789  15.142  1.00  0.00    +0.004 C 
ATOM      9  C   UNL     1      48.277  50.482  17.561  1.00  0.00    +0.073 C 
ATOM     10  C   UNL     1      49.575  49.410  15.366  1.00  0.00    +0.007 C 
ATOM     11  C   UNL     1      48.594  48.458  16.051  1.00  0.00    +0.070 C 
ATOM     12  C   UNL     1      47.852  52.685  16.395  1.00  0.00    +0.008 C 
BRANCH   6  13
ATOM     13  N   UNL     1      46.706  48.465  17.691  1.00  0.00    -0.333 N 
ATOM     14  C   UNL     1      45.603  49.375  17.211  1.00  0.00    +0.333 C 
ATOM     15  C   UNL     1      46.385  48.000  19.096  1.00  0.00    +0.333 C 
ATOM     16  H   UNL     1      46.600  47.627  17.110  1.00  0.00    +0.348 HD
ENDBRANCH   6  13
ENDBRANCH   5   6
ENDBRANCH   1   5
BRANCH   2  17
ATOM     17  C   UNL     1      52.256  49.868  20.093  1.00  0.00    +0.230 C 
BRANCH  17  18
ATOM     18  N   UNL     1      52.090  51.213  19.618  1.00  0.00    -0.253 N 
ATOM     19  C   UNL     1      51.496  52.212  20.334  1.00  0.00    +0.256 C 
ATOM     20  C   UNL     1      52.342  51.606  18.344  1.00  0.00    +0.325 C 
ATOM     21  O   UNL     1      51.098  52.116  21.485  1.00  0.00    -0.272 OA
ATOM     22  C   UNL     1      51.406  53.456  19.432  1.00  0.00    +0.121 C 
ATOM     23  N   UNL     1      52.034  52.942  18.238  1.00  0.00    -0.323 N 
ATOM     24  O   UNL     1      52.731  50.900  17.425  1.00  0.00    -0.248 OA
ATOM     25  C   UNL     1      49.959  53.876  19.206  1.00  0.00    +0.039 C 
ATOM     26  C   UNL     1      52.130  54.659  20.040  1.00  0.00    +0.039 C 
ATOM     27  C   UNL     1      49.734  54.935  20.274  1.00  0.00    +0.003 C 
ATOM     28  C   UNL     1      51.043  55.703  20.304  1.00  0.00    +0.003 C 
ATOM     29  H   UNL     1      52.079  53.415  17.350  1.00  0.00    +0.166 HD
ENDBRANCH  17  18
ENDBRANCH   2  17
TORSDOF 5
ENDMDL
MODEL 3
REMARK VINA RESULT:    -8.280      2.076      3.230
REMARK INTER + INTRA:         -11.596
REMARK INTER:                 -11.424
REMARK INTRA:                  -0.172
REMARK UNBOUND:                -0.895
REMARK SMILES C[C@H]1CCC[C@](CNC(=O)CN2C(=O)NC3(CCCC3)C2=O)([NH+](C)C)C1
REMARK SMILES IDX 8 1 9 2 10 3 7 5 6 6 2 7 3 8 26 9 4 10 5 11 1 12 23 13 24 14
REMARK SMILES IDX 25 15 11 17 12 18 21 19 13 20 22 21 16 22 15 23 14 24 17 25
REMARK SMILES IDX 20 26 18 27 19 28
REMARK H PARENT 8 4 23 16 15 29
ROOT
ATOM      1  N   UNL     1      50.149  51.568  18.999  1.00  0.00    -0.348 N 
ATOM      2  C   UNL     1      51.059  51.998  19.945  1.00  0.00    +0.240 C 
ATOM      3  O   UNL     1      52.180  51.515  20.034  1.00  0.00    -0.273 OA
ATOM      4  H   UNL     1      49.365  52.183  18.806  1.00  0.00    +0.163 HD
ENDROOT
BRANCH   1   5
ATOM      5  C   UNL     1      50.542  50.631  17.959  1.00  0.00    +0.184 C 
BRANCH   5   6
ATOM      6  C   UNL     1      49.365  50.063  17.101  1.00  0.00    +0.115 C 
ATOM      7  C   UNL     1      46.912  49.366  17.452  1.00  0.00    -0.008 C 
ATOM      8  C   UNL     1      46.385  50.812  17.337  1.00  0.00    +0.004 C 
ATOM      9  C   UNL     1      48.336  49.362  18.030  1.00  0.00    +0.073 C 
ATOM     10  C   UNL     1      47.502  51.842  17.134  1.00  0.00    +0.007 C 
ATOM     11  C   UNL     1      48.669  51.243  16.349  1.00  0.00    +0.070 C 
ATOM     12  C   UNL     1      45.967  48.522  18.306  1.00  0.00    +0.008 C 
BRANCH   6  13
ATOM     13  N   UNL     1      49.860  49.073  15.994  1.00  0.00    -0.333 N 
ATOM     14  C   UNL     1      50.131  49.631  14.619  1.00  0.00    +0.333 C 
ATOM     15  C   UNL     1      49.030  47.813  15.858  1.00  0.00    +0.333 C 
ATOM     16  H   UNL     1      50.779  48.747  16.309  1.00  0.00    +0.348 HD
ENDBRANCH   6  13
ENDBRANCH   5   6
ENDBRANCH   1   5
BRANCH   2  17
ATOM     17  C   UNL     1      50.514  53.089  20.867  1.00  0.00    +0.230 C 
BRANCH  17  18
ATOM     18  N   UNL     1      51.004  54.360  20.413  1.00  0.00    -0.253 N 
ATOM     19  C   UNL     1      51.734  55.220  21.181  1.00  0.00    +0.256 C 
ATOM     20  C   UNL     1      50.654  54.933  19.234  1.00  0.00    +0.325 C 
ATOM     21  O   UNL     1      52.124  54.996  22.317  1.00  0.00    -0.272 OA
ATOM     22  C   UNL     1      51.956  56.511  20.373  1.00  0.00    +0.121 C 
ATOM     23  N   UNL     1      51.276  56.156  19.149  1.00  0.00    -0.323 N 
ATOM     24  O   UNL     1      49.885  54.477  18.400  1.00  0.00    -0.248 OA
ATOM     25  C   UNL     1      51.335  57.717  21.068  1.00  0.00    +0.039 C 
ATOM     26  C   UNL     1      53.442  56.822  20.184  1.00  0.00    +0.039 C 
ATOM     27  C   UNL     1      52.498  58.300  21.855  1.00  0.00    +0.003 C 
ATOM     28  C   UNL     1      53.684  58.140  20.922  1.00  0.00    +0.003 C 
ATOM     29  H   UNL     1      51.090  56.780  18.381  1.00  0.00    +0.166 HD
ENDBRANCH  17  18
ENDBRANCH   2  17
TORSDOF 5
ENDMDL
MODEL 4
REMARK VINA RESULT:    -8.177      2.262      3.554
REMARK INTER + INTRA:         -11.462
REMARK INTER:                 -10.744
REMARK INTRA:                  -0.718
REMARK UNBOUND:                -0.895
REMARK SMILES C[C@H]1CCC[C@](CNC(=O)CN2C(=O)NC3(CCCC3)C2=O)([NH+](C)C)C1
REMARK SMILES IDX 8 1 9 2 10 3 7 5 6 6 2 7 3 8 26 9 4 10 5 11 1 12 23 13 24 14
REMARK SMILES IDX 25 15 11 17 12 18 21 19 13 20 22 21 16 22 15 23 14 24 17 25
REMARK SMILES IDX 20 26 18 27 19 28
REMARK H PARENT 8 4 23 16 15 29
ROOT
ATOM      1  N   UNL     1      50.160  51.813  18.974  1.00  0.00    -0.348 N 
ATOM      2  C   UNL     1      51.107  52.414  19.780  1.00  0.00    +0.240 C 
ATOM      3  O   UNL     1      52.293  52.441  19.478  1.00  0.00    -0.273 OA
ATOM      4  H   UNL     1      49.191  52.064  19.142  1.00  0.00    +0.163 HD
ENDROOT
BRANCH   1   5
ATOM      5  C   UNL     1      50.508  51.326  17.649  1.00  0.00    +0.184 C 
BRANCH   5   6
ATOM      6  C   UNL     1      49.429  50.419  16.972  1.00  0.00    +0.115 C 
ATOM      7  C   UNL     1      47.251  49.224  17.640  1.00  0.00    -0.008 C 
ATOM      8  C   UNL     1      46.389  50.492  17.468  1.00  0.00    +0.004 C 
ATOM      9  C   UNL     1      48.680  49.603  18.060  1.00  0.00    +0.073 C 
ATOM     10  C   UNL     1      47.209  51.722  17.063  1.00  0.00    +0.007 C 
ATOM     11  C   UNL     1      48.412  51.327  16.208  1.00  0.00    +0.070 C 
ATOM     12  C   UNL     1      46.610  48.279  18.657  1.00  0.00    +0.008 C 
BRANCH   6  13
ATOM     13  N   UNL     1      50.047  49.460  15.901  1.00  0.00    -0.333 N 
ATOM     14  C   UNL     1      51.151  49.997  15.024  1.00  0.00    +0.333 C 
ATOM     15  C   UNL     1      49.031  48.748  15.032  1.00  0.00    +0.333 C 
ATOM     16  H   UNL     1      50.503  48.712  16.433  1.00  0.00    +0.348 HD
ENDBRANCH   6  13
ENDBRANCH   5   6
ENDBRANCH   1   5
BRANCH   2  17
ATOM     17  C   UNL     1      50.532  52.995  21.072  1.00  0.00    +0.230 C 
BRANCH  17  18
ATOM     18  N   UNL     1      50.322  54.403  20.888  1.00  0.00    -0.253 N 
ATOM     19  C   UNL     1      49.244  54.941  20.245  1.00  0.00    +0.256 C 
ATOM     20  C   UNL     1      51.247  55.354  21.171  1.00  0.00    +0.325 C 
ATOM     21  O   UNL     1      48.292  54.309  19.811  1.00  0.00    -0.272 OA
ATOM     22  C   UNL     1      49.454  56.463  20.153  1.00  0.00    +0.121 C 
ATOM     23  N   UNL     1      50.722  56.579  20.833  1.00  0.00    -0.323 N 
ATOM     24  O   UNL     1      52.374  55.169  21.607  1.00  0.00    -0.248 OA
ATOM     25  C   UNL     1      49.513  56.930  18.704  1.00  0.00    +0.039 C 
ATOM     26  C   UNL     1      48.321  57.241  20.826  1.00  0.00    +0.039 C 
ATOM     27  C   UNL     1      48.082  57.357  18.418  1.00  0.00    +0.003 C 
ATOM     28  C   UNL     1      47.640  58.028  19.705  1.00  0.00    +0.003 C 
ATOM     29  H   UNL     1      51.279  57.416  20.895  1.00  0.00    +0.166 HD
ENDBRANCH  17  18
ENDBRANCH   2  17
TORSDOF 5
ENDMDL
MODEL 5
REMARK VINA RESULT:    -7.960      2.096      7.231
REMARK INTER + INTRA:         -11.182
REMARK INTER:                 -10.601
REMARK INTRA:                  -0.581
REMARK UNBOUND:                -0.895
REMARK SMILES C[C@H]1CCC[C@](CNC(=O)CN2C(=O)NC3(CCCC3)C2=O)([NH+](C)C)C1
REMARK SMILES IDX 8 1 9 2 10 3 7 5 6 6 2 7 3 8 26 9 4 10 5 11 1 12 23 13 24 14
REMARK SMILES IDX 25 15 11 17 12 18 21 19 13 20 22 21 16 22 15 23 14 24 17 25
REMARK SMILES IDX 20 26 18 27 19 28
REMARK H PARENT 8 4 23 16 15 29
ROOT
ATOM      1  N   UNL     1      49.924  53.526  19.067  1.00  0.00    -0.348 N 
ATOM      2  C   UNL     1      50.578  52.536  19.772  1.00  0.00    +0.240 C 
ATOM      3  O   UNL     1      50.531  52.470  20.994  1.00  0.00    -0.273 OA
ATOM      4  H   UNL     1      49.780  53.363  18.075  1.00  0.00    +0.163 HD
ENDROOT
BRANCH   1   5
ATOM      5  C   UNL     1      49.014  54.442  19.736  1.00  0.00    +0.184 C 
BRANCH   5   6
ATOM      6  C   UNL     1      49.444  55.945  19.702  1.00  0.00    +0.115 C 
ATOM      7  C   UNL     1      49.808  57.864  21.377  1.00  0.00    -0.008 C 
ATOM      8  C   UNL     1      51.231  57.397  21.750  1.00  0.00    +0.004 C 
ATOM      9  C   UNL     1      48.937  56.660  20.984  1.00  0.00    +0.073 C 
ATOM     10  C   UNL     1      51.648  56.113  21.025  1.00  0.00    +0.007 C 
ATOM     11  C   UNL     1      51.004  56.025  19.641  1.00  0.00    +0.070 C 
ATOM     12  C   UNL     1      49.183  58.641  22.536  1.00  0.00    +0.008 C 
BRANCH   6  13
ATOM     13  N   UNL     1      48.920  56.683  18.424  1.00  0.00    -0.333 N 
ATOM     14  C   UNL     1      47.841  57.722  18.601  1.00  0.00    +0.333 C 
ATOM     15  C   UNL     1      48.538  55.768  17.280  1.00  0.00    +0.333 C 
ATOM     16  H   UNL     1      49.719  57.220  18.072  1.00  0.00    +0.348 HD
ENDBRANCH   6  13
ENDBRANCH   5   6
ENDBRANCH   1   5
BRANCH   2  17
ATOM     17  C   UNL     1      51.375  51.578  18.886  1.00  0.00    +0.230 C 
BRANCH  17  18
ATOM     18  N   UNL     1      50.541  50.457  18.557  1.00  0.00    -0.253 N 
ATOM     19  C   UNL     1      49.564  50.481  17.604  1.00  0.00    +0.256 C 
ATOM     20  C   UNL     1      50.504  49.302  19.268  1.00  0.00    +0.325 C 
ATOM     21  O   UNL     1      49.321  51.423  16.865  1.00  0.00    -0.272 OA
ATOM     22  C   UNL     1      48.825  49.131  17.645  1.00  0.00    +0.121 C 
ATOM     23  N   UNL     1      49.569  48.474  18.694  1.00  0.00    -0.323 N 
ATOM     24  O   UNL     1      51.148  49.042  20.274  1.00  0.00    -0.248 OA
ATOM     25  C   UNL     1      47.352  49.313  17.987  1.00  0.00    +0.039 C 
ATOM     26  C   UNL     1      48.884  48.404  16.299  1.00  0.00    +0.039 C 
ATOM     27  C   UNL     1      46.682  49.361  16.623  1.00  0.00    +0.003 C 
ATOM     28  C   UNL     1      47.436  48.324  15.812  1.00  0.00    +0.003 C 
ATOM     29  H   UNL     1      49.331  47.591  19.114  1.00  0.00    +0.166 HD
ENDBRANCH  17  18
ENDBRANCH   2  17
TORSDOF 5
ENDMDL
