MODEL 1
REMARK VINA RESULT:    -5.369      0.000      0.000
REMARK INTER + INTRA:          -8.504
REMARK INTER:                  -8.664
REMARK INTRA:                   0.160
REMARK UNBOUND:                 0.160
REMARK SMILES O=C([O-])C[NH+]1CCCN(C(=O)[C@@H]2C[C@H](O)C[NH2+]2)CC1
REMARK SMILES IDX 18 1 9 2 8 3 7 4 10 6 11 7 12 8 13 9 17 10 14 11 16 12 15 15
REMARK SMILES IDX 19 17 5 18 6 20 4 22 2 23 1 24 3 25
REMARK H PARENT 17 13 17 14 15 16 5 19
REMARK Flexibility Score:   39.900
ROOT
ATOM      1  C   UNL     1      51.321  55.109  19.100  1.00  0.00    +0.181 C 
ENDROOT
BRANCH   1   2
ATOM      2  N   UNL     1      50.835  53.873  19.710  1.00  0.00    -0.332 N 
BRANCH   2   3
ATOM      3  C   UNL     1      50.310  54.014  21.070  1.00  0.00    +0.126 C 
BRANCH   3   4
ATOM      4  C   UNL     1      51.385  54.141  22.147  1.00  0.00    +0.083 CG0
ATOM      5  G   UNL     1      51.899  55.555  22.408  1.00  0.00    +0.000 G0
ENDBRANCH   3   4
ENDBRANCH   2   3
BRANCH   2   6
ATOM      6  C   UNL     1      51.066  52.596  19.209  1.00  0.00    +0.281 C 
ATOM      7  O   UNL     1      51.277  52.402  18.008  1.00  0.00    -0.268 OA
BRANCH   6   8
ATOM      8  C   UNL     1      51.020  51.377  20.154  1.00  0.00    +0.275 C 
ATOM      9  C   UNL     1      52.393  50.900  20.632  1.00  0.00    +0.113 C 
ATOM     10  N   UNL     1      50.426  50.192  19.439  1.00  0.00    -0.334 N 
ATOM     11  C   UNL     1      52.573  49.517  20.012  1.00  0.00    +0.175 C 
ATOM     12  C   UNL     1      51.148  48.984  19.887  1.00  0.00    +0.293 C 
ATOM     13  H   UNL     1      49.377  50.201  19.585  1.00  0.00    +0.347 HD
ATOM     14  H   UNL     1      50.567  50.338  18.426  1.00  0.00    +0.347 HD
BRANCH  11  15
ATOM     15  O   UNL     1      53.127  49.674  18.707  1.00  0.00    -0.387 OA
ATOM     16  H   UNL     1      52.399  49.841  18.077  1.00  0.00    +0.211 HD
ENDBRANCH  11  15
ENDBRANCH   6   8
ENDBRANCH   2   6
ENDBRANCH   1   2
BRANCH   1  17
ATOM     17  C   UNL     1      52.369  55.893  19.914  1.00  0.00    +0.284 C 
BRANCH  17  18
ATOM     18  N   UNL     1      51.894  56.484  21.227  1.00  0.00    -0.329 N 
ATOM     19  H   UNL     1      50.904  56.683  21.003  1.00  0.00    +0.348 HD
BRANCH  18  20
ATOM     20  C   UNL     1      51.905  55.566  22.411  1.00  0.00    +0.264 CG0
ATOM     21  G   UNL     1      51.381  54.162  22.118  1.00  0.00    +0.000 G0
ENDBRANCH  18  20
BRANCH  18  22
ATOM     22  C   UNL     1      52.360  57.940  21.529  1.00  0.00    +0.316 C 
BRANCH  22  23
ATOM     23  C   UNL     1      53.889  58.183  21.505  1.00  0.00    +0.096 C 
ATOM     24  O   UNL     1      54.520  57.716  22.499  1.00  0.00    -0.544 OA
ATOM     25  O   UNL     1      54.308  58.633  20.407  1.00  0.00    -0.544 OA
ENDBRANCH  22  23
ENDBRANCH  18  22
ENDBRANCH  17  18
ENDBRANCH   1  17
TORSDOF 5
ENDMDL
MODEL 2
REMARK VINA RESULT:    -5.292      1.743      2.232
REMARK INTER + INTRA:          -8.381
REMARK INTER:                  -8.487
REMARK INTRA:                   0.106
REMARK UNBOUND:                 0.160
REMARK SMILES O=C([O-])C[NH+]1CCCN(C(=O)[C@@H]2C[C@H](O)C[NH2+]2)CC1
REMARK SMILES IDX 18 1 9 2 8 3 7 4 10 6 11 7 12 8 13 9 17 10 14 11 16 12 15 15
REMARK SMILES IDX 19 17 5 18 6 20 4 22 2 23 1 24 3 25
REMARK H PARENT 17 13 17 14 15 16 5 19
REMARK Flexibility Score:   39.900
ROOT
ATOM      1  C   UNL     1      51.113  53.985  21.430  1.00  0.00    +0.181 C 
ENDROOT
BRANCH   1   2
ATOM      2  N   UNL     1      50.909  53.928  19.984  1.00  0.00    -0.332 N 
BRANCH   2   3
ATOM      3  C   UNL     1      49.633  54.473  19.513  1.00  0.00    +0.126 C 
BRANCH   3   4
ATOM      4  C   UNL     1      49.633  55.986  19.314  1.00  0.00    +0.083 CG0
ATOM      5  G   UNL     1      50.023  56.817  20.535  1.00  0.00    +0.000 G0
ENDBRANCH   3   4
ENDBRANCH   2   3
BRANCH   2   6
ATOM      6  C   UNL     1      51.691  53.192  19.100  1.00  0.00    +0.281 C 
ATOM      7  O   UNL     1      52.589  53.721  18.436  1.00  0.00    -0.268 OA
BRANCH   6   8
ATOM      8  C   UNL     1      51.418  51.687  18.898  1.00  0.00    +0.275 C 
ATOM      9  C   UNL     1      50.510  51.065  19.963  1.00  0.00    +0.113 C 
ATOM     10  N   UNL     1      52.706  50.911  18.988  1.00  0.00    -0.334 N 
ATOM     11  C   UNL     1      51.397  50.078  20.717  1.00  0.00    +0.175 C 
ATOM     12  C   UNL     1      52.419  49.635  19.673  1.00  0.00    +0.293 C 
ATOM     13  H   UNL     1      53.129  50.848  18.020  1.00  0.00    +0.347 HD
ATOM     14  H   UNL     1      53.369  51.475  19.545  1.00  0.00    +0.347 HD
BRANCH  11  15
ATOM     15  O   UNL     1      52.071  50.779  21.760  1.00  0.00    -0.387 OA
ATOM     16  H   UNL     1      51.410  51.272  22.283  1.00  0.00    +0.211 HD
ENDBRANCH  11  15
ENDBRANCH   6   8
ENDBRANCH   2   6
ENDBRANCH   1   2
BRANCH   1  17
ATOM     17  C   UNL     1      51.553  55.349  21.994  1.00  0.00    +0.284 C 
BRANCH  17  18
ATOM     18  N   UNL     1      51.413  56.538  21.063  1.00  0.00    -0.329 N 
ATOM     19  H   UNL     1      51.980  56.221  20.258  1.00  0.00    +0.348 HD
BRANCH  18  20
ATOM     20  C   UNL     1      50.034  56.819  20.548  1.00  0.00    +0.264 CG0
ATOM     21  G   UNL     1      49.646  55.998  19.320  1.00  0.00    +0.000 G0
ENDBRANCH  18  20
BRANCH  18  22
ATOM     22  C   UNL     1      52.235  57.805  21.443  1.00  0.00    +0.316 C 
BRANCH  22  23
ATOM     23  C   UNL     1      53.775  57.661  21.381  1.00  0.00    +0.096 C 
ATOM     24  O   UNL     1      54.288  57.893  20.246  1.00  0.00    -0.544 OA
ATOM     25  O   UNL     1      54.313  57.531  22.511  1.00  0.00    -0.544 OA
ENDBRANCH  22  23
ENDBRANCH  18  22
ENDBRANCH  17  18
ENDBRANCH   1  17
TORSDOF 5
ENDMDL
MODEL 3
REMARK VINA RESULT:    -5.166      2.122      6.710
REMARK INTER + INTRA:          -8.178
REMARK INTER:                  -8.125
REMARK INTRA:                  -0.053
REMARK UNBOUND:                 0.160
REMARK SMILES O=C([O-])C[NH+]1CCCN(C(=O)[C@@H]2C[C@H](O)C[NH2+]2)CC1
REMARK SMILES IDX 18 1 9 2 8 3 7 4 10 6 11 7 12 8 13 9 17 10 14 11 16 12 15 15
REMARK SMILES IDX 19 17 5 18 6 20 4 22 2 23 1 24 3 25
REMARK H PARENT 17 13 17 14 15 16 5 19
REMARK Flexibility Score:   39.900
ROOT
ATOM      1  C   UNL     1      50.481  53.014  21.807  1.00  0.00    +0.181 C 
ENDROOT
BRANCH   1   2
ATOM      2  N   UNL     1      50.697  54.366  21.294  1.00  0.00    -0.332 N 
BRANCH   2   3
ATOM      3  C   UNL     1      50.108  54.635  19.981  1.00  0.00    +0.126 C 
BRANCH   3   4
ATOM      4  C   UNL     1      51.040  54.353  18.805  1.00  0.00    +0.083 CG0
ATOM      5  G   UNL     1      51.446  52.893  18.616  1.00  0.00    +0.000 G0
ENDBRANCH   3   4
ENDBRANCH   2   3
BRANCH   2   6
ATOM      6  C   UNL     1      51.600  55.282  21.825  1.00  0.00    +0.281 C 
ATOM      7  O   UNL     1      52.179  55.072  22.896  1.00  0.00    -0.268 OA
BRANCH   6   8
ATOM      8  C   UNL     1      51.865  56.615  21.095  1.00  0.00    +0.275 C 
ATOM      9  C   UNL     1      53.322  56.822  20.674  1.00  0.00    +0.113 C 
ATOM     10  N   UNL     1      51.557  57.773  22.007  1.00  0.00    -0.334 N 
ATOM     11  C   UNL     1      53.815  58.000  21.510  1.00  0.00    +0.175 C 
ATOM     12  C   UNL     1      52.557  58.830  21.750  1.00  0.00    +0.293 C 
ATOM     13  H   UNL     1      50.540  58.039  21.884  1.00  0.00    +0.347 HD
ATOM     14  H   UNL     1      51.640  57.433  22.979  1.00  0.00    +0.347 HD
BRANCH  11  15
ATOM     15  O   UNL     1      54.289  57.502  22.760  1.00  0.00    -0.387 OA
ATOM     16  H   UNL     1      55.266  57.534  22.758  1.00  0.00    +0.211 HD
ENDBRANCH  11  15
ENDBRANCH   6   8
ENDBRANCH   2   6
ENDBRANCH   1   2
BRANCH   1  17
ATOM     17  C   UNL     1      51.020  51.869  20.930  1.00  0.00    +0.284 C 
BRANCH  17  18
ATOM     18  N   UNL     1      50.675  51.933  19.455  1.00  0.00    -0.329 N 
ATOM     19  H   UNL     1      49.706  52.292  19.498  1.00  0.00    +0.348 HD
BRANCH  18  20
ATOM     20  C   UNL     1      51.468  52.898  18.628  1.00  0.00    +0.264 CG0
ATOM     21  G   UNL     1      51.035  54.355  18.783  1.00  0.00    +0.000 G0
ENDBRANCH  18  20
BRANCH  18  22
ATOM     22  C   UNL     1      50.386  50.568  18.761  1.00  0.00    +0.316 C 
BRANCH  22  23
ATOM     23  C   UNL     1      49.035  50.457  18.012  1.00  0.00    +0.096 C 
ATOM     24  O   UNL     1      48.536  51.562  17.644  1.00  0.00    -0.544 OA
ATOM     25  O   UNL     1      48.729  49.277  17.702  1.00  0.00    -0.544 OA
ENDBRANCH  22  23
ENDBRANCH  18  22
ENDBRANCH  17  18
ENDBRANCH   1  17
TORSDOF 5
ENDMDL
MODEL 4
REMARK VINA RESULT:    -5.157      1.956      2.286
REMARK INTER + INTRA:          -8.163
REMARK INTER:                  -8.592
REMARK INTRA:                   0.428
REMARK UNBOUND:                 0.160
REMARK SMILES O=C([O-])C[NH+]1CCCN(C(=O)[C@@H]2C[C@H](O)C[NH2+]2)CC1
REMARK SMILES IDX 18 1 9 2 8 3 7 4 10 6 11 7 12 8 13 9 17 10 14 11 16 12 15 15
REMARK SMILES IDX 19 17 5 18 6 20 4 22 2 23 1 24 3 25
REMARK H PARENT 17 13 17 14 15 16 5 19
REMARK Flexibility Score:   39.900
ROOT
ATOM      1  C   UNL     1      51.074  54.624  19.072  1.00  0.00    +0.181 C 
ENDROOT
BRANCH   1   2
ATOM      2  N   UNL     1      51.327  53.242  19.473  1.00  0.00    -0.332 N 
BRANCH   2   3
ATOM      3  C   UNL     1      51.994  53.080  20.766  1.00  0.00    +0.126 C 
BRANCH   3   4
ATOM      4  C   UNL     1      51.255  53.723  21.938  1.00  0.00    +0.083 CG0
ATOM      5  G   UNL     1      51.662  55.156  22.273  1.00  0.00    +0.000 G0
ENDBRANCH   3   4
ENDBRANCH   2   3
BRANCH   2   6
ATOM      6  C   UNL     1      51.218  52.139  18.631  1.00  0.00    +0.281 C 
ATOM      7  O   UNL     1      52.216  51.581  18.165  1.00  0.00    -0.268 OA
BRANCH   6   8
ATOM      8  C   UNL     1      49.825  51.613  18.226  1.00  0.00    +0.275 C 
ATOM      9  C   UNL     1      49.779  50.109  17.942  1.00  0.00    +0.113 C 
ATOM     10  N   UNL     1      49.382  52.262  16.942  1.00  0.00    -0.334 N 
ATOM     11  C   UNL     1      49.474  49.993  16.452  1.00  0.00    +0.175 C 
ATOM     12  C   UNL     1      48.659  51.248  16.147  1.00  0.00    +0.293 C 
ATOM     13  H   UNL     1      48.853  53.149  17.177  1.00  0.00    +0.347 HD
ATOM     14  H   UNL     1      50.231  52.570  16.440  1.00  0.00    +0.347 HD
BRANCH  11  15
ATOM     15  O   UNL     1      50.703  50.051  15.731  1.00  0.00    -0.387 OA
ATOM     16  H   UNL     1      51.393  50.414  16.319  1.00  0.00    +0.211 HD
ENDBRANCH  11  15
ENDBRANCH   6   8
ENDBRANCH   2   6
ENDBRANCH   1   2
BRANCH   1  17
ATOM     17  C   UNL     1      51.926  55.695  19.779  1.00  0.00    +0.284 C 
BRANCH  17  18
ATOM     18  N   UNL     1      51.446  56.138  21.148  1.00  0.00    -0.329 N 
ATOM     19  H   UNL     1      50.426  56.196  20.986  1.00  0.00    +0.348 HD
BRANCH  18  20
ATOM     20  C   UNL     1      51.663  55.172  22.271  1.00  0.00    +0.264 CG0
ATOM     21  G   UNL     1      51.266  53.734  21.944  1.00  0.00    +0.000 G0
ENDBRANCH  18  20
BRANCH  18  22
ATOM     22  C   UNL     1      51.708  57.630  21.514  1.00  0.00    +0.316 C 
BRANCH  22  23
ATOM     23  C   UNL     1      53.184  58.018  21.771  1.00  0.00    +0.096 C 
ATOM     24  O   UNL     1      54.036  57.159  21.396  1.00  0.00    -0.544 OA
ATOM     25  O   UNL     1      53.333  59.215  22.130  1.00  0.00    -0.544 OA
ENDBRANCH  22  23
ENDBRANCH  18  22
ENDBRANCH  17  18
ENDBRANCH   1  17
TORSDOF 5
ENDMDL
MODEL 5
REMARK VINA RESULT:    -4.910      2.684      3.290
REMARK INTER + INTRA:          -7.765
REMARK INTER:                  -7.692
REMARK INTRA:                  -0.073
REMARK UNBOUND:                 0.160
REMARK SMILES O=C([O-])C[NH+]1CCCN(C(=O)[C@@H]2C[C@H](O)C[NH2+]2)CC1
REMARK SMILES IDX 18 1 9 2 8 3 7 4 10 6 11 7 12 8 13 9 17 10 14 11 16 12 15 15
REMARK SMILES IDX 19 17 5 18 6 20 4 22 2 23 1 24 3 25
REMARK H PARENT 17 13 17 14 15 16 5 19
REMARK Flexibility Score:   39.900
ROOT
ATOM      1  C   UNL     1      50.196  53.217  18.865  1.00  0.00    +0.181 C 
ENDROOT
BRANCH   1   2
ATOM      2  N   UNL     1      50.516  51.855  19.287  1.00  0.00    -0.332 N 
BRANCH   2   3
ATOM      3  C   UNL     1      51.703  51.728  20.134  1.00  0.00    +0.126 C 
BRANCH   3   4
ATOM      4  C   UNL     1      51.481  52.128  21.590  1.00  0.00    +0.083 CG0
ATOM      5  G   UNL     1      51.639  53.616  21.901  1.00  0.00    +0.000 G0
ENDBRANCH   3   4
ENDBRANCH   2   3
BRANCH   2   6
ATOM      6  C   UNL     1      49.949  50.703  18.749  1.00  0.00    +0.281 C 
ATOM      7  O   UNL     1      50.261  49.579  19.155  1.00  0.00    -0.268 OA
BRANCH   6   8
ATOM      8  C   UNL     1      48.938  50.811  17.588  1.00  0.00    +0.275 C 
ATOM      9  C   UNL     1      47.837  49.748  17.614  1.00  0.00    +0.113 C 
ATOM     10  N   UNL     1      49.640  50.609  16.272  1.00  0.00    -0.334 N 
ATOM     11  C   UNL     1      48.084  48.887  16.379  1.00  0.00    +0.175 C 
ATOM     12  C   UNL     1      48.733  49.849  15.387  1.00  0.00    +0.293 C 
ATOM     13  H   UNL     1      49.972  51.549  15.919  1.00  0.00    +0.347 HD
ATOM     14  H   UNL     1      50.497  50.063  16.458  1.00  0.00    +0.347 HD
BRANCH  11  15
ATOM     15  O   UNL     1      49.021  47.866  16.717  1.00  0.00    -0.387 OA
ATOM     16  H   UNL     1      48.560  47.179  17.237  1.00  0.00    +0.211 HD
ENDBRANCH  11  15
ENDBRANCH   6   8
ENDBRANCH   2   6
ENDBRANCH   1   2
BRANCH   1  17
ATOM     17  C   UNL     1      51.046  54.334  19.498  1.00  0.00    +0.284 C 
BRANCH  17  18
ATOM     18  N   UNL     1      50.875  54.545  20.990  1.00  0.00    -0.329 N 
ATOM     19  H   UNL     1      49.875  54.308  21.105  1.00  0.00    +0.348 HD
BRANCH  18  20
ATOM     20  C   UNL     1      51.653  53.629  21.884  1.00  0.00    +0.264 CG0
ATOM     21  G   UNL     1      51.461  52.145  21.577  1.00  0.00    +0.000 G0
ENDBRANCH  18  20
BRANCH  18  22
ATOM     22  C   UNL     1      50.818  56.027  21.468  1.00  0.00    +0.316 C 
BRANCH  22  23
ATOM     23  C   UNL     1      52.098  56.866  21.235  1.00  0.00    +0.096 C 
ATOM     24  O   UNL     1      52.026  57.697  20.281  1.00  0.00    -0.544 OA
ATOM     25  O   UNL     1      52.952  56.744  22.151  1.00  0.00    -0.544 OA
ENDBRANCH  22  23
ENDBRANCH  18  22
ENDBRANCH  17  18
ENDBRANCH   1  17
TORSDOF 5
ENDMDL
