MODEL 1
REMARK VINA RESULT:    -7.321      0.000      0.000
REMARK INTER + INTRA:         -10.733
REMARK INTER:                  -9.889
REMARK INTRA:                  -0.844
REMARK UNBOUND:                -0.844
REMARK SMILES CC[C@H](C)[NH2+]CC(=O)Nc1cc(F)c(F)cc1C(=O)[O-]
REMARK SMILES IDX 6 1 5 2 3 5 4 6 2 7 1 8 7 9 8 10 9 11 10 13 11 14 17 15
REMARK SMILES IDX 12 16 16 17 14 18 13 19 15 20 18 21 19 22 20 23
REMARK H PARENT 5 3 5 4 9 12
ROOT
ATOM      1  C   UNL     1      49.596  52.653  17.894  1.00  0.00    +0.362 C 
ENDROOT
BRANCH   1   2
ATOM      2  N   UNL     1      51.088  52.505  18.100  1.00  0.00    -0.336 N 
ATOM      3  H   UNL     1      51.520  52.621  17.172  1.00  0.00    +0.346 HD
ATOM      4  H   UNL     1      51.384  53.364  18.594  1.00  0.00    +0.346 HD
BRANCH   2   5
ATOM      5  C   UNL     1      51.612  51.285  18.779  1.00  0.00    +0.179 C 
ATOM      6  C   UNL     1      52.475  51.686  19.971  1.00  0.00    +0.075 C 
BRANCH   5   7
ATOM      7  C   UNL     1      50.455  50.344  19.131  1.00  0.00    +0.061 C 
ATOM      8  C   UNL     1      50.873  49.223  20.074  1.00  0.00    +0.010 C 
ENDBRANCH   5   7
ENDBRANCH   2   5
ENDBRANCH   1   2
BRANCH   1   9
ATOM      9  C   UNL     1      49.181  54.084  18.232  1.00  0.00    +0.279 C 
ATOM     10  O   UNL     1      48.621  54.767  17.377  1.00  0.00    -0.268 OA
ATOM     11  N   UNL     1      49.505  54.416  19.510  1.00  0.00    -0.320 N 
ATOM     12  H   UNL     1      49.970  53.689  20.089  1.00  0.00    +0.170 HD
BRANCH  11  13
ATOM     13  C   UNL     1      49.307  55.594  20.247  1.00  0.00    +0.053 A 
ATOM     14  C   UNL     1      48.120  56.326  20.197  1.00  0.00    +0.069 A 
ATOM     15  C   UNL     1      50.387  56.021  21.065  1.00  0.00    +0.024 A 
ATOM     16  C   UNL     1      48.004  57.486  20.958  1.00  0.00    +0.160 A 
ATOM     17  C   UNL     1      50.237  57.197  21.821  1.00  0.00    +0.054 A 
ATOM     18  C   UNL     1      49.051  57.919  21.763  1.00  0.00    +0.159 A 
ATOM     19  F   UNL     1      46.862  58.187  20.906  1.00  0.00    -0.204 F 
ATOM     20  F   UNL     1      48.921  59.038  22.489  1.00  0.00    -0.204 F 
BRANCH  15  21
ATOM     21  C   UNL     1      51.690  55.234  21.142  1.00  0.00    +0.074 C 
ATOM     22  O   UNL     1      52.394  55.153  20.097  1.00  0.00    -0.545 OA
ATOM     23  O   UNL     1      51.966  54.712  22.281  1.00  0.00    -0.545 OA
ENDBRANCH  15  21
ENDBRANCH  11  13
ENDBRANCH   1   9
TORSDOF 6
ENDMDL
MODEL 2
REMARK VINA RESULT:    -7.316      1.473      2.076
REMARK INTER + INTRA:         -10.727
REMARK INTER:                  -9.866
REMARK INTRA:                  -0.860
REMARK UNBOUND:                -0.844
REMARK SMILES CC[C@H](C)[NH2+]CC(=O)Nc1cc(F)c(F)cc1C(=O)[O-]
REMARK SMILES IDX 6 1 5 2 3 5 4 6 2 7 1 8 7 9 8 10 9 11 10 13 11 14 17 15
REMARK SMILES IDX 12 16 16 17 14 18 13 19 15 20 18 21 19 22 20 23
REMARK H PARENT 5 3 5 4 9 12
ROOT
ATOM      1  C   UNL     1      52.266  52.241  19.936  1.00  0.00    +0.362 C 
ENDROOT
BRANCH   1   2
ATOM      2  N   UNL     1      51.645  51.294  18.932  1.00  0.00    -0.336 N 
ATOM      3  H   UNL     1      51.816  51.707  18.004  1.00  0.00    +0.346 HD
ATOM      4  H   UNL     1      52.258  50.461  18.924  1.00  0.00    +0.346 HD
BRANCH   2   5
ATOM      5  C   UNL     1      50.213  50.909  19.085  1.00  0.00    +0.179 C 
ATOM      6  C   UNL     1      49.401  51.462  17.918  1.00  0.00    +0.075 C 
BRANCH   5   7
ATOM      7  C   UNL     1      50.095  49.392  19.268  1.00  0.00    +0.061 C 
ATOM      8  C   UNL     1      50.477  48.936  20.670  1.00  0.00    +0.010 C 
ENDBRANCH   5   7
ENDBRANCH   2   5
ENDBRANCH   1   2
BRANCH   1   9
ATOM      9  C   UNL     1      51.760  53.658  19.671  1.00  0.00    +0.279 C 
ATOM     10  O   UNL     1      52.176  54.273  18.691  1.00  0.00    -0.268 OA
ATOM     11  N   UNL     1      50.863  54.058  20.611  1.00  0.00    -0.320 N 
ATOM     12  H   UNL     1      50.628  53.383  21.365  1.00  0.00    +0.170 HD
BRANCH  11  13
ATOM     13  C   UNL     1      50.139  55.251  20.761  1.00  0.00    +0.053 A 
ATOM     14  C   UNL     1      48.969  55.520  20.051  1.00  0.00    +0.069 A 
ATOM     15  C   UNL     1      50.657  56.195  21.687  1.00  0.00    +0.024 A 
ATOM     16  C   UNL     1      48.310  56.730  20.258  1.00  0.00    +0.160 A 
ATOM     17  C   UNL     1      49.967  57.408  21.872  1.00  0.00    +0.054 A 
ATOM     18  C   UNL     1      48.803  57.665  21.159  1.00  0.00    +0.159 A 
ATOM     19  F   UNL     1      47.186  56.984  19.572  1.00  0.00    -0.204 F 
ATOM     20  F   UNL     1      48.155  58.824  21.344  1.00  0.00    -0.204 F 
BRANCH  15  21
ATOM     21  C   UNL     1      51.929  55.922  22.480  1.00  0.00    +0.074 C 
ATOM     22  O   UNL     1      51.891  55.024  23.368  1.00  0.00    -0.545 OA
ATOM     23  O   UNL     1      52.949  56.638  22.174  1.00  0.00    -0.545 OA
ENDBRANCH  15  21
ENDBRANCH  11  13
ENDBRANCH   1   9
TORSDOF 6
ENDMDL
MODEL 3
REMARK VINA RESULT:    -7.237      4.885      7.127
REMARK INTER + INTRA:         -10.620
REMARK INTER:                  -9.983
REMARK INTRA:                  -0.637
REMARK UNBOUND:                -0.844
REMARK SMILES CC[C@H](C)[NH2+]CC(=O)Nc1cc(F)c(F)cc1C(=O)[O-]
REMARK SMILES IDX 6 1 5 2 3 5 4 6 2 7 1 8 7 9 8 10 9 11 10 13 11 14 17 15
REMARK SMILES IDX 12 16 16 17 14 18 13 19 15 20 18 21 19 22 20 23
REMARK H PARENT 5 3 5 4 9 12
ROOT
ATOM      1  C   UNL     1      52.114  49.567  19.785  1.00  0.00    +0.362 C 
ENDROOT
BRANCH   1   2
ATOM      2  N   UNL     1      52.561  50.401  20.966  1.00  0.00    -0.336 N 
ATOM      3  H   UNL     1      52.045  50.042  21.783  1.00  0.00    +0.346 HD
ATOM      4  H   UNL     1      53.531  50.102  21.162  1.00  0.00    +0.346 HD
BRANCH   2   5
ATOM      5  C   UNL     1      52.460  51.887  20.887  1.00  0.00    +0.179 C 
ATOM      6  C   UNL     1      52.315  52.319  19.432  1.00  0.00    +0.075 C 
BRANCH   5   7
ATOM      7  C   UNL     1      51.338  52.385  21.804  1.00  0.00    +0.061 C 
ATOM      8  C   UNL     1      51.517  53.840  22.217  1.00  0.00    +0.010 C 
ENDBRANCH   5   7
ENDBRANCH   2   5
ENDBRANCH   1   2
BRANCH   1   9
ATOM      9  C   UNL     1      50.627  49.248  19.929  1.00  0.00    +0.279 C 
ATOM     10  O   UNL     1      50.197  48.855  21.013  1.00  0.00    -0.268 OA
ATOM     11  N   UNL     1      49.948  49.462  18.771  1.00  0.00    -0.320 N 
ATOM     12  H   UNL     1      50.492  49.810  17.957  1.00  0.00    +0.170 HD
BRANCH  11  13
ATOM     13  C   UNL     1      48.591  49.321  18.445  1.00  0.00    +0.053 A 
ATOM     14  C   UNL     1      47.755  48.394  19.069  1.00  0.00    +0.069 A 
ATOM     15  C   UNL     1      48.088  50.179  17.431  1.00  0.00    +0.024 A 
ATOM     16  C   UNL     1      46.419  48.316  18.687  1.00  0.00    +0.160 A 
ATOM     17  C   UNL     1      46.733  50.075  17.068  1.00  0.00    +0.054 A 
ATOM     18  C   UNL     1      45.911  49.148  17.697  1.00  0.00    +0.159 A 
ATOM     19  F   UNL     1      45.620  47.423  19.290  1.00  0.00    -0.204 F 
ATOM     20  F   UNL     1      44.621  49.058  17.342  1.00  0.00    -0.204 F 
BRANCH  15  21
ATOM     21  C   UNL     1      48.978  51.204  16.739  1.00  0.00    +0.074 C 
ATOM     22  O   UNL     1      49.358  50.958  15.560  1.00  0.00    -0.545 OA
ATOM     23  O   UNL     1      49.272  52.249  17.424  1.00  0.00    -0.545 OA
ENDBRANCH  15  21
ENDBRANCH  11  13
ENDBRANCH   1   9
TORSDOF 6
ENDMDL
MODEL 4
REMARK VINA RESULT:    -6.987      3.592      6.284
REMARK INTER + INTRA:         -10.282
REMARK INTER:                  -9.585
REMARK INTRA:                  -0.697
REMARK UNBOUND:                -0.844
REMARK SMILES CC[C@H](C)[NH2+]CC(=O)Nc1cc(F)c(F)cc1C(=O)[O-]
REMARK SMILES IDX 6 1 5 2 3 5 4 6 2 7 1 8 7 9 8 10 9 11 10 13 11 14 17 15
REMARK SMILES IDX 12 16 16 17 14 18 13 19 15 20 18 21 19 22 20 23
REMARK H PARENT 5 3 5 4 9 12
ROOT
ATOM      1  C   UNL     1      52.123  55.262  19.565  1.00  0.00    +0.362 C 
ENDROOT
BRANCH   1   2
ATOM      2  N   UNL     1      50.744  55.763  19.936  1.00  0.00    -0.336 N 
ATOM      3  H   UNL     1      50.564  56.582  19.338  1.00  0.00    +0.346 HD
ATOM      4  H   UNL     1      50.085  55.060  19.560  1.00  0.00    +0.346 HD
BRANCH   2   5
ATOM      5  C   UNL     1      50.443  56.074  21.364  1.00  0.00    +0.179 C 
ATOM      6  C   UNL     1      51.743  56.205  22.150  1.00  0.00    +0.075 C 
BRANCH   5   7
ATOM      7  C   UNL     1      49.531  57.303  21.451  1.00  0.00    +0.061 C 
ATOM      8  C   UNL     1      48.263  57.156  20.621  1.00  0.00    +0.010 C 
ENDBRANCH   5   7
ENDBRANCH   2   5
ENDBRANCH   1   2
BRANCH   1   9
ATOM      9  C   UNL     1      52.004  53.862  18.964  1.00  0.00    +0.279 C 
ATOM     10  O   UNL     1      52.903  53.439  18.239  1.00  0.00    -0.268 OA
ATOM     11  N   UNL     1      50.854  53.245  19.346  1.00  0.00    -0.320 N 
ATOM     12  H   UNL     1      50.219  53.768  19.979  1.00  0.00    +0.170 HD
BRANCH  11  13
ATOM     13  C   UNL     1      50.340  51.971  19.057  1.00  0.00    +0.053 A 
ATOM     14  C   UNL     1      49.345  51.755  18.104  1.00  0.00    +0.069 A 
ATOM     15  C   UNL     1      50.886  50.884  19.791  1.00  0.00    +0.024 A 
ATOM     16  C   UNL     1      48.888  50.459  17.878  1.00  0.00    +0.160 A 
ATOM     17  C   UNL     1      50.402  49.588  19.539  1.00  0.00    +0.054 A 
ATOM     18  C   UNL     1      49.410  49.385  18.587  1.00  0.00    +0.159 A 
ATOM     19  F   UNL     1      47.931  50.258  16.961  1.00  0.00    -0.204 F 
ATOM     20  F   UNL     1      48.958  48.145  18.356  1.00  0.00    -0.204 F 
BRANCH  15  21
ATOM     21  C   UNL     1      51.978  51.093  20.833  1.00  0.00    +0.074 C 
ATOM     22  O   UNL     1      51.706  51.802  21.842  1.00  0.00    -0.545 OA
ATOM     23  O   UNL     1      53.102  50.520  20.594  1.00  0.00    -0.545 OA
ENDBRANCH  15  21
ENDBRANCH  11  13
ENDBRANCH   1   9
TORSDOF 6
ENDMDL
MODEL 5
REMARK VINA RESULT:    -6.858      2.066      3.578
REMARK INTER + INTRA:         -10.108
REMARK INTER:                  -9.101
REMARK INTRA:                  -1.007
REMARK UNBOUND:                -0.844
REMARK SMILES CC[C@H](C)[NH2+]CC(=O)Nc1cc(F)c(F)cc1C(=O)[O-]
REMARK SMILES IDX 6 1 5 2 3 5 4 6 2 7 1 8 7 9 8 10 9 11 10 13 11 14 17 15
REMARK SMILES IDX 12 16 16 17 14 18 13 19 15 20 18 21 19 22 20 23
REMARK H PARENT 5 3 5 4 9 12
ROOT
ATOM      1  C   UNL     1      51.417  51.181  17.980  1.00  0.00    +0.362 C 
ENDROOT
BRANCH   1   2
ATOM      2  N   UNL     1      50.089  51.281  17.261  1.00  0.00    -0.336 N 
ATOM      3  H   UNL     1      49.677  52.183  17.542  1.00  0.00    +0.346 HD
ATOM      4  H   UNL     1      50.325  51.442  16.267  1.00  0.00    +0.346 HD
BRANCH   2   5
ATOM      5  C   UNL     1      49.097  50.177  17.408  1.00  0.00    +0.179 C 
ATOM      6  C   UNL     1      49.258  49.515  18.772  1.00  0.00    +0.075 C 
BRANCH   5   7
ATOM      7  C   UNL     1      47.685  50.701  17.128  1.00  0.00    +0.061 C 
ATOM      8  C   UNL     1      46.603  49.671  17.427  1.00  0.00    +0.010 C 
ENDBRANCH   5   7
ENDBRANCH   2   5
ENDBRANCH   1   2
BRANCH   1   9
ATOM      9  C   UNL     1      51.762  52.539  18.588  1.00  0.00    +0.279 C 
ATOM     10  O   UNL     1      52.791  53.114  18.234  1.00  0.00    -0.268 OA
ATOM     11  N   UNL     1      50.824  52.946  19.483  1.00  0.00    -0.320 N 
ATOM     12  H   UNL     1      50.011  52.319  19.639  1.00  0.00    +0.170 HD
BRANCH  11  13
ATOM     13  C   UNL     1      50.718  54.110  20.259  1.00  0.00    +0.053 A 
ATOM     14  C   UNL     1      51.485  54.329  21.404  1.00  0.00    +0.069 A 
ATOM     15  C   UNL     1      49.777  55.081  19.823  1.00  0.00    +0.024 A 
ATOM     16  C   UNL     1      51.318  55.512  22.120  1.00  0.00    +0.160 A 
ATOM     17  C   UNL     1      49.633  56.265  20.569  1.00  0.00    +0.054 A 
ATOM     18  C   UNL     1      50.402  56.472  21.708  1.00  0.00    +0.159 A 
ATOM     19  F   UNL     1      52.058  55.716  23.220  1.00  0.00    -0.204 F 
ATOM     20  F   UNL     1      50.256  57.604  22.410  1.00  0.00    -0.204 F 
BRANCH  15  21
ATOM     21  C   UNL     1      48.932  54.870  18.573  1.00  0.00    +0.074 C 
ATOM     22  O   UNL     1      48.879  55.808  17.729  1.00  0.00    -0.545 OA
ATOM     23  O   UNL     1      48.337  53.736  18.480  1.00  0.00    -0.545 OA
ENDBRANCH  15  21
ENDBRANCH  11  13
ENDBRANCH   1   9
TORSDOF 6
ENDMDL
