MODEL 1
REMARK VINA RESULT:    -6.715      0.000      0.000
REMARK INTER + INTRA:         -12.346
REMARK INTER:                 -10.641
REMARK INTRA:                  -1.706
REMARK UNBOUND:                -1.706
REMARK SMILES NC(=O)NCCCCC(=O)NCCCOC1CCCC1
REMARK SMILES IDX 11 1 9 2 10 3 12 5 13 6 14 7 15 8 16 9 18 10 19 11 17 12
REMARK SMILES IDX 20 13 8 14 7 15 6 16 5 17 4 18 2 19 3 20 1 21
REMARK H PARENT 11 4 4 22 1 23 1 24
ROOT
ATOM      1  N   UNL     1      51.046  52.890  20.187  1.00  0.00    -0.356 N 
ATOM      2  C   UNL     1      51.308  53.131  18.856  1.00  0.00    +0.219 C 
ATOM      3  O   UNL     1      52.359  53.613  18.450  1.00  0.00    -0.275 OA
ATOM      4  H   UNL     1      50.125  52.579  20.467  1.00  0.00    +0.163 HD
ENDROOT
BRANCH   1   5
ATOM      5  C   UNL     1      52.000  53.201  21.231  1.00  0.00    +0.118 C 
BRANCH   5   6
ATOM      6  C   UNL     1      51.398  54.033  22.362  1.00  0.00    +0.050 C 
BRANCH   6   7
ATOM      7  C   UNL     1      51.573  55.538  22.168  1.00  0.00    +0.162 C 
BRANCH   7   8
ATOM      8  O   UNL     1      51.485  55.928  20.799  1.00  0.00    -0.378 OA
BRANCH   8   9
ATOM      9  C   UNL     1      50.396  56.789  20.495  1.00  0.00    +0.118 C 
ATOM     10  C   UNL     1      48.552  58.001  21.446  1.00  0.00    +0.003 C 
ATOM     11  C   UNL     1      47.997  57.019  20.413  1.00  0.00    +0.003 C 
ATOM     12  C   UNL     1      49.962  57.521  21.759  1.00  0.00    +0.032 C 
ATOM     13  C   UNL     1      49.126  56.039  20.112  1.00  0.00    +0.032 C 
ENDBRANCH   8   9
ENDBRANCH   7   8
ENDBRANCH   6   7
ENDBRANCH   5   6
ENDBRANCH   1   5
BRANCH   2  14
ATOM     14  C   UNL     1      50.144  52.767  17.953  1.00  0.00    +0.100 C 
BRANCH  14  15
ATOM     15  C   UNL     1      49.133  51.823  18.604  1.00  0.00    +0.012 C 
BRANCH  15  16
ATOM     16  C   UNL     1      49.032  50.430  17.965  1.00  0.00    +0.022 C 
BRANCH  16  17
ATOM     17  C   UNL     1      49.168  49.264  18.939  1.00  0.00    +0.117 C 
BRANCH  17  18
ATOM     18  N   UNL     1      50.541  48.813  19.056  1.00  0.00    -0.338 N 
ATOM     19  C   UNL     1      51.310  49.240  20.100  1.00  0.00    +0.312 C 
ATOM     20  O   UNL     1      50.931  49.900  21.054  1.00  0.00    -0.249 OA
ATOM     21  N   UNL     1      52.599  48.834  19.977  1.00  0.00    -0.352 N 
ATOM     22  H   UNL     1      51.059  48.731  18.193  1.00  0.00    +0.165 HD
ATOM     23  H   UNL     1      53.146  49.035  20.806  1.00  0.00    +0.161 HD
ATOM     24  H   UNL     1      52.727  47.899  19.618  1.00  0.00    +0.161 HD
ENDBRANCH  17  18
ENDBRANCH  16  17
ENDBRANCH  15  16
ENDBRANCH  14  15
ENDBRANCH   2  14
TORSDOF 10
ENDMDL
MODEL 2
REMARK VINA RESULT:    -6.336      2.355      3.072
REMARK INTER + INTRA:         -11.745
REMARK INTER:                 -10.914
REMARK INTRA:                  -0.832
REMARK UNBOUND:                -1.706
REMARK SMILES NC(=O)NCCCCC(=O)NCCCOC1CCCC1
REMARK SMILES IDX 11 1 9 2 10 3 12 5 13 6 14 7 15 8 16 9 18 10 19 11 17 12
REMARK SMILES IDX 20 13 8 14 7 15 6 16 5 17 4 18 2 19 3 20 1 21
REMARK H PARENT 11 4 4 22 1 23 1 24
ROOT
ATOM      1  N   UNL     1      50.753  51.432  20.000  1.00  0.00    -0.356 N 
ATOM      2  C   UNL     1      51.364  50.201  19.905  1.00  0.00    +0.219 C 
ATOM      3  O   UNL     1      52.567  50.029  20.067  1.00  0.00    -0.275 OA
ATOM      4  H   UNL     1      49.774  51.524  19.763  1.00  0.00    +0.163 HD
ENDROOT
BRANCH   1   5
ATOM      5  C   UNL     1      51.493  52.642  20.294  1.00  0.00    +0.118 C 
BRANCH   5   6
ATOM      6  C   UNL     1      51.370  53.077  21.753  1.00  0.00    +0.050 C 
BRANCH   6   7
ATOM      7  C   UNL     1      51.627  54.568  21.965  1.00  0.00    +0.162 C 
BRANCH   7   8
ATOM      8  O   UNL     1      51.753  55.283  20.738  1.00  0.00    -0.378 OA
BRANCH   8   9
ATOM      9  C   UNL     1      50.814  56.336  20.565  1.00  0.00    +0.118 C 
ATOM     10  C   UNL     1      49.239  57.743  21.709  1.00  0.00    +0.003 C 
ATOM     11  C   UNL     1      48.488  56.966  20.627  1.00  0.00    +0.003 C 
ATOM     12  C   UNL     1      50.558  57.011  21.906  1.00  0.00    +0.032 C 
ATOM     13  C   UNL     1      49.422  55.844  20.186  1.00  0.00    +0.032 C 
ENDBRANCH   8   9
ENDBRANCH   7   8
ENDBRANCH   6   7
ENDBRANCH   5   6
ENDBRANCH   1   5
BRANCH   2  14
ATOM     14  C   UNL     1      50.395  49.090  19.544  1.00  0.00    +0.100 C 
BRANCH  14  15
ATOM     15  C   UNL     1      49.149  49.578  18.804  1.00  0.00    +0.012 C 
BRANCH  15  16
ATOM     16  C   UNL     1      49.011  49.082  17.357  1.00  0.00    +0.022 C 
BRANCH  16  17
ATOM     17  C   UNL     1      49.294  50.132  16.287  1.00  0.00    +0.117 C 
BRANCH  17  18
ATOM     18  N   UNL     1      50.708  50.226  15.979  1.00  0.00    -0.338 N 
ATOM     19  C   UNL     1      51.153  49.912  14.729  1.00  0.00    +0.312 C 
ATOM     20  O   UNL     1      50.459  49.655  13.758  1.00  0.00    -0.249 OA
ATOM     21  N   UNL     1      52.508  49.921  14.658  1.00  0.00    -0.352 N 
ATOM     22  H   UNL     1      51.343  49.936  16.709  1.00  0.00    +0.165 HD
ATOM     23  H   UNL     1      52.844  49.817  13.708  1.00  0.00    +0.161 HD
ATOM     24  H   UNL     1      52.965  50.659  15.175  1.00  0.00    +0.161 HD
ENDBRANCH  17  18
ENDBRANCH  16  17
ENDBRANCH  15  16
ENDBRANCH  14  15
ENDBRANCH   2  14
TORSDOF 10
ENDMDL
MODEL 3
REMARK VINA RESULT:    -6.072      2.799      3.468
REMARK INTER + INTRA:         -11.328
REMARK INTER:                 -10.076
REMARK INTRA:                  -1.252
REMARK UNBOUND:                -1.706
REMARK SMILES NC(=O)NCCCCC(=O)NCCCOC1CCCC1
REMARK SMILES IDX 11 1 9 2 10 3 12 5 13 6 14 7 15 8 16 9 18 10 19 11 17 12
REMARK SMILES IDX 20 13 8 14 7 15 6 16 5 17 4 18 2 19 3 20 1 21
REMARK H PARENT 11 4 4 22 1 23 1 24
ROOT
ATOM      1  N   UNL     1      50.059  52.876  18.186  1.00  0.00    -0.356 N 
ATOM      2  C   UNL     1      49.777  51.680  17.565  1.00  0.00    +0.219 C 
ATOM      3  O   UNL     1      50.619  50.815  17.350  1.00  0.00    -0.275 OA
ATOM      4  H   UNL     1      49.342  53.588  18.250  1.00  0.00    +0.163 HD
ENDROOT
BRANCH   1   5
ATOM      5  C   UNL     1      51.392  53.221  18.634  1.00  0.00    +0.118 C 
BRANCH   5   6
ATOM      6  C   UNL     1      51.411  53.852  20.025  1.00  0.00    +0.050 C 
BRANCH   6   7
ATOM      7  C   UNL     1      50.028  54.271  20.520  1.00  0.00    +0.162 C 
BRANCH   7   8
ATOM      8  O   UNL     1      49.413  55.240  19.674  1.00  0.00    -0.378 OA
BRANCH   8   9
ATOM      9  C   UNL     1      48.597  56.187  20.350  1.00  0.00    +0.118 C 
ATOM     10  C   UNL     1      47.705  58.415  20.239  1.00  0.00    +0.003 C 
ATOM     11  C   UNL     1      48.537  58.296  21.517  1.00  0.00    +0.003 C 
ATOM     12  C   UNL     1      48.124  57.244  19.360  1.00  0.00    +0.032 C 
ATOM     13  C   UNL     1      49.365  57.024  21.366  1.00  0.00    +0.032 C 
ENDBRANCH   8   9
ENDBRANCH   7   8
ENDBRANCH   6   7
ENDBRANCH   5   6
ENDBRANCH   1   5
BRANCH   2  14
ATOM     14  C   UNL     1      48.324  51.563  17.146  1.00  0.00    +0.100 C 
BRANCH  14  15
ATOM     15  C   UNL     1      47.803  50.125  17.128  1.00  0.00    +0.012 C 
BRANCH  15  16
ATOM     16  C   UNL     1      47.495  49.558  15.733  1.00  0.00    +0.022 C 
BRANCH  16  17
ATOM     17  C   UNL     1      48.382  48.393  15.304  1.00  0.00    +0.117 C 
BRANCH  17  18
ATOM     18  N   UNL     1      49.791  48.708  15.430  1.00  0.00    -0.338 N 
ATOM     19  C   UNL     1      50.442  49.334  14.407  1.00  0.00    +0.312 C 
ATOM     20  O   UNL     1      49.931  49.782  13.392  1.00  0.00    -0.249 OA
ATOM     21  N   UNL     1      51.776  49.426  14.638  1.00  0.00    -0.352 N 
ATOM     22  H   UNL     1      50.362  48.019  15.898  1.00  0.00    +0.165 HD
ATOM     23  H   UNL     1      52.247  50.000  13.948  1.00  0.00    +0.161 HD
ATOM     24  H   UNL     1      52.038  49.632  15.591  1.00  0.00    +0.161 HD
ENDBRANCH  17  18
ENDBRANCH  16  17
ENDBRANCH  15  16
ENDBRANCH  14  15
ENDBRANCH   2  14
TORSDOF 10
ENDMDL
MODEL 4
REMARK VINA RESULT:    -5.992      1.795      2.527
REMARK INTER + INTRA:         -11.200
REMARK INTER:                  -9.982
REMARK INTRA:                  -1.218
REMARK UNBOUND:                -1.706
REMARK SMILES NC(=O)NCCCCC(=O)NCCCOC1CCCC1
REMARK SMILES IDX 11 1 9 2 10 3 12 5 13 6 14 7 15 8 16 9 18 10 19 11 17 12
REMARK SMILES IDX 20 13 8 14 7 15 6 16 5 17 4 18 2 19 3 20 1 21
REMARK H PARENT 11 4 4 22 1 23 1 24
ROOT
ATOM      1  N   UNL     1      50.278  52.305  18.281  1.00  0.00    -0.356 N 
ATOM      2  C   UNL     1      49.374  51.444  17.700  1.00  0.00    +0.219 C 
ATOM      3  O   UNL     1      48.263  51.791  17.313  1.00  0.00    -0.275 OA
ATOM      4  H   UNL     1      51.140  51.940  18.666  1.00  0.00    +0.163 HD
ENDROOT
BRANCH   1   5
ATOM      5  C   UNL     1      49.985  53.707  18.494  1.00  0.00    +0.118 C 
BRANCH   5   6
ATOM      6  C   UNL     1      49.693  54.041  19.956  1.00  0.00    +0.050 C 
BRANCH   6   7
ATOM      7  C   UNL     1      50.649  55.078  20.544  1.00  0.00    +0.162 C 
BRANCH   7   8
ATOM      8  O   UNL     1      50.766  56.241  19.728  1.00  0.00    -0.378 OA
BRANCH   8   9
ATOM      9  C   UNL     1      50.034  57.367  20.190  1.00  0.00    +0.118 C 
ATOM     10  C   UNL     1      48.913  58.309  22.095  1.00  0.00    +0.003 C 
ATOM     11  C   UNL     1      47.898  58.179  20.959  1.00  0.00    +0.003 C 
ATOM     12  C   UNL     1      50.082  57.412  21.712  1.00  0.00    +0.032 C 
ATOM     13  C   UNL     1      48.537  57.261  19.923  1.00  0.00    +0.032 C 
ENDBRANCH   8   9
ENDBRANCH   7   8
ENDBRANCH   6   7
ENDBRANCH   5   6
ENDBRANCH   1   5
BRANCH   2  14
ATOM     14  C   UNL     1      49.885  50.018  17.624  1.00  0.00    +0.100 C 
BRANCH  14  15
ATOM     15  C   UNL     1      49.102  49.037  18.498  1.00  0.00    +0.012 C 
BRANCH  15  16
ATOM     16  C   UNL     1      49.729  48.737  19.868  1.00  0.00    +0.022 C 
BRANCH  16  17
ATOM     17  C   UNL     1      51.129  49.307  20.073  1.00  0.00    +0.117 C 
BRANCH  17  18
ATOM     18  N   UNL     1      51.184  50.217  21.201  1.00  0.00    -0.338 N 
ATOM     19  C   UNL     1      51.978  51.325  21.143  1.00  0.00    +0.312 C 
ATOM     20  O   UNL     1      52.594  51.722  20.166  1.00  0.00    -0.249 OA
ATOM     21  N   UNL     1      52.015  51.983  22.329  1.00  0.00    -0.352 N 
ATOM     22  H   UNL     1      51.166  49.792  22.117  1.00  0.00    +0.165 HD
ATOM     23  H   UNL     1      52.495  52.872  22.259  1.00  0.00    +0.161 HD
ATOM     24  H   UNL     1      51.138  52.029  22.827  1.00  0.00    +0.161 HD
ENDBRANCH  17  18
ENDBRANCH  16  17
ENDBRANCH  15  16
ENDBRANCH  14  15
ENDBRANCH   2  14
TORSDOF 10
ENDMDL
MODEL 5
REMARK VINA RESULT:    -5.964      2.717      6.260
REMARK INTER + INTRA:         -11.156
REMARK INTER:                 -10.212
REMARK INTRA:                  -0.944
REMARK UNBOUND:                -1.706
REMARK SMILES NC(=O)NCCCCC(=O)NCCCOC1CCCC1
REMARK SMILES IDX 11 1 9 2 10 3 12 5 13 6 14 7 15 8 16 9 18 10 19 11 17 12
REMARK SMILES IDX 20 13 8 14 7 15 6 16 5 17 4 18 2 19 3 20 1 21
REMARK H PARENT 11 4 4 22 1 23 1 24
ROOT
ATOM      1  N   UNL     1      49.403  53.462  17.976  1.00  0.00    -0.356 N 
ATOM      2  C   UNL     1      49.573  54.076  19.197  1.00  0.00    +0.219 C 
ATOM      3  O   UNL     1      48.683  54.694  19.772  1.00  0.00    -0.275 OA
ATOM      4  H   UNL     1      50.200  53.049  17.508  1.00  0.00    +0.163 HD
ENDROOT
BRANCH   1   5
ATOM      5  C   UNL     1      48.146  53.504  17.257  1.00  0.00    +0.118 C 
BRANCH   5   6
ATOM      6  C   UNL     1      47.973  52.335  16.288  1.00  0.00    +0.050 C 
BRANCH   6   7
ATOM      7  C   UNL     1      49.030  51.245  16.457  1.00  0.00    +0.162 C 
BRANCH   7   8
ATOM      8  O   UNL     1      48.476  50.007  16.897  1.00  0.00    -0.378 OA
BRANCH   8   9
ATOM      9  C   UNL     1      47.118  49.801  16.532  1.00  0.00    +0.118 C 
ATOM     10  C   UNL     1      45.092  48.662  17.141  1.00  0.00    +0.003 C 
ATOM     11  C   UNL     1      45.485  48.218  15.731  1.00  0.00    +0.003 C 
ATOM     12  C   UNL     1      46.340  49.295  17.740  1.00  0.00    +0.032 C 
ATOM     13  C   UNL     1      46.930  48.665  15.534  1.00  0.00    +0.032 C 
ENDBRANCH   8   9
ENDBRANCH   7   8
ENDBRANCH   6   7
ENDBRANCH   5   6
ENDBRANCH   1   5
BRANCH   2  14
ATOM     14  C   UNL     1      50.985  53.936  19.734  1.00  0.00    +0.100 C 
BRANCH  14  15
ATOM     15  C   UNL     1      51.078  54.057  21.255  1.00  0.00    +0.012 C 
BRANCH  15  16
ATOM     16  C   UNL     1      51.666  52.832  21.974  1.00  0.00    +0.022 C 
BRANCH  16  17
ATOM     17  C   UNL     1      51.045  51.496  21.579  1.00  0.00    +0.117 C 
BRANCH  17  18
ATOM     18  N   UNL     1      52.052  50.509  21.241  1.00  0.00    -0.338 N 
ATOM     19  C   UNL     1      52.034  49.912  20.015  1.00  0.00    +0.312 C 
ATOM     20  O   UNL     1      51.303  50.203  19.081  1.00  0.00    -0.249 OA
ATOM     21  N   UNL     1      52.957  48.922  19.921  1.00  0.00    -0.352 N 
ATOM     22  H   UNL     1      52.325  49.879  21.982  1.00  0.00    +0.165 HD
ATOM     23  H   UNL     1      53.039  48.561  18.977  1.00  0.00    +0.161 HD
ATOM     24  H   UNL     1      53.843  49.111  20.366  1.00  0.00    +0.161 HD
ENDBRANCH  17  18
ENDBRANCH  16  17
ENDBRANCH  15  16
ENDBRANCH  14  15
ENDBRANCH   2  14
TORSDOF 10
ENDMDL
