MODEL 1
REMARK VINA RESULT:    -8.548      0.000      0.000
REMARK INTER + INTRA:         -12.318
REMARK INTER:                 -11.546
REMARK INTRA:                  -0.772
REMARK UNBOUND:                -0.772
REMARK SMILES Cc1ccc(NC(=O)C2CC2)cc1NC(=O)N[C@@H](C)Cc1ccco1
REMARK SMILES IDX 14 1 15 2 16 3 17 4 13 7 2 8 3 9 4 10 12 11 5 12 1 13 6 14
REMARK SMILES IDX 7 15 8 16 9 18 10 19 11 20 18 21 19 22 20 23 21 24 22 25
REMARK SMILES IDX 25 26 23 27 24 28
REMARK H PARENT 14 5 17 6 6 17
ROOT
ATOM      1  N   UNL     1      51.481  51.322  18.234  1.00  0.00    -0.308 N 
ATOM      2  C   UNL     1      50.372  51.134  17.438  1.00  0.00    +0.319 C 
ATOM      3  O   UNL     1      49.305  51.724  17.508  1.00  0.00    -0.248 OA
ATOM      4  N   UNL     1      50.633  50.171  16.478  1.00  0.00    -0.335 N 
ATOM      5  H   UNL     1      52.348  51.083  17.780  1.00  0.00    +0.171 HD
ATOM      6  H   UNL     1      51.265  49.445  16.783  1.00  0.00    +0.165 HD
ENDROOT
BRANCH   1   7
ATOM      7  C   UNL     1      51.560  52.093  19.418  1.00  0.00    +0.047 A 
ATOM      8  C   UNL     1      51.176  51.505  20.640  1.00  0.00    -0.027 A 
ATOM      9  C   UNL     1      51.251  52.264  21.815  1.00  0.00    +0.008 A 
ATOM     10  C   UNL     1      51.679  53.592  21.782  1.00  0.00    +0.026 A 
ATOM     11  C   UNL     1      51.971  53.438  19.397  1.00  0.00    +0.052 A 
ATOM     12  C   UNL     1      52.027  54.195  20.571  1.00  0.00    +0.043 A 
ATOM     13  C   UNL     1      50.705  50.079  20.737  1.00  0.00    +0.046 C 
BRANCH  12  14
ATOM     14  N   UNL     1      52.422  55.549  20.627  1.00  0.00    -0.326 N 
ATOM     15  C   UNL     1      51.613  56.666  20.670  1.00  0.00    +0.227 C 
ATOM     16  O   UNL     1      50.393  56.687  20.730  1.00  0.00    -0.274 OA
ATOM     17  H   UNL     1      53.416  55.715  20.679  1.00  0.00    +0.169 HD
BRANCH  15  18
ATOM     18  C   UNL     1      52.327  57.983  20.673  1.00  0.00    +0.079 C 
ATOM     19  C   UNL     1      53.826  58.112  20.805  1.00  0.00    +0.014 C 
ATOM     20  C   UNL     1      52.936  58.570  21.926  1.00  0.00    +0.014 C 
ENDBRANCH  15  18
ENDBRANCH  12  14
ENDBRANCH   1   7
BRANCH   4  21
ATOM     21  C   UNL     1      49.578  49.758  15.548  1.00  0.00    +0.088 C 
ATOM     22  C   UNL     1      50.186  49.616  14.151  1.00  0.00    +0.031 C 
BRANCH  21  23
ATOM     23  C   UNL     1      48.897  48.458  16.021  1.00  0.00    +0.100 C 
BRANCH  23  24
ATOM     24  C   UNL     1      47.509  48.684  16.501  1.00  0.00    +0.105 A 
ATOM     25  C   UNL     1      46.986  49.157  17.686  1.00  0.00    +0.045 A 
ATOM     26  O   UNL     1      46.503  48.374  15.635  1.00  0.00    -0.469 OA
ATOM     27  C   UNL     1      45.579  49.138  17.535  1.00  0.00    +0.042 A 
ATOM     28  C   UNL     1      45.336  48.653  16.271  1.00  0.00    +0.195 A 
ENDBRANCH  23  24
ENDBRANCH  21  23
ENDBRANCH   4  21
TORSDOF 6
ENDMDL
MODEL 2
REMARK VINA RESULT:    -8.462      1.668      2.069
REMARK INTER + INTRA:         -12.203
REMARK INTER:                 -11.739
REMARK INTRA:                  -0.463
REMARK UNBOUND:                -0.772
REMARK SMILES Cc1ccc(NC(=O)C2CC2)cc1NC(=O)N[C@@H](C)Cc1ccco1
REMARK SMILES IDX 14 1 15 2 16 3 17 4 13 7 2 8 3 9 4 10 12 11 5 12 1 13 6 14
REMARK SMILES IDX 7 15 8 16 9 18 10 19 11 20 18 21 19 22 20 23 21 24 22 25
REMARK SMILES IDX 25 26 23 27 24 28
REMARK H PARENT 14 5 17 6 6 17
ROOT
ATOM      1  N   UNL     1      51.111  51.696  18.226  1.00  0.00    -0.308 N 
ATOM      2  C   UNL     1      50.058  51.292  17.434  1.00  0.00    +0.319 C 
ATOM      3  O   UNL     1      48.903  51.685  17.484  1.00  0.00    -0.248 OA
ATOM      4  N   UNL     1      50.491  50.363  16.503  1.00  0.00    -0.335 N 
ATOM      5  H   UNL     1      52.009  51.600  17.781  1.00  0.00    +0.171 HD
ATOM      6  H   UNL     1      51.240  49.770  16.830  1.00  0.00    +0.165 HD
ENDROOT
BRANCH   1   7
ATOM      7  C   UNL     1      51.044  52.502  19.387  1.00  0.00    +0.047 A 
ATOM      8  C   UNL     1      51.739  52.090  20.542  1.00  0.00    -0.027 A 
ATOM      9  C   UNL     1      51.676  52.884  21.695  1.00  0.00    +0.008 A 
ATOM     10  C   UNL     1      50.920  54.057  21.714  1.00  0.00    +0.026 A 
ATOM     11  C   UNL     1      50.271  53.676  19.427  1.00  0.00    +0.052 A 
ATOM     12  C   UNL     1      50.198  54.455  20.586  1.00  0.00    +0.043 A 
ATOM     13  C   UNL     1      52.568  50.835  20.582  1.00  0.00    +0.046 C 
BRANCH  12  14
ATOM     14  N   UNL     1      49.440  55.639  20.703  1.00  0.00    -0.326 N 
ATOM     15  C   UNL     1      49.898  56.916  20.956  1.00  0.00    +0.227 C 
ATOM     16  O   UNL     1      51.061  57.271  21.066  1.00  0.00    -0.274 OA
ATOM     17  H   UNL     1      48.448  55.543  20.545  1.00  0.00    +0.169 HD
BRANCH  15  18
ATOM     18  C   UNL     1      48.841  57.971  21.077  1.00  0.00    +0.079 C 
ATOM     19  C   UNL     1      47.391  57.735  20.722  1.00  0.00    +0.014 C 
ATOM     20  C   UNL     1      48.230  58.646  19.870  1.00  0.00    +0.014 C 
ENDBRANCH  15  18
ENDBRANCH  12  14
ENDBRANCH   1   7
BRANCH   4  21
ATOM     21  C   UNL     1      49.533  49.744  15.583  1.00  0.00    +0.088 C 
ATOM     22  C   UNL     1      50.226  49.512  14.238  1.00  0.00    +0.031 C 
BRANCH  21  23
ATOM     23  C   UNL     1      48.958  48.441  16.174  1.00  0.00    +0.100 C 
BRANCH  23  24
ATOM     24  C   UNL     1      47.557  48.599  16.644  1.00  0.00    +0.105 A 
ATOM     25  C   UNL     1      46.999  48.847  17.880  1.00  0.00    +0.045 A 
ATOM     26  O   UNL     1      46.578  48.477  15.704  1.00  0.00    -0.469 OA
ATOM     27  C   UNL     1      45.599  48.884  17.684  1.00  0.00    +0.042 A 
ATOM     28  C   UNL     1      45.393  48.653  16.344  1.00  0.00    +0.195 A 
ENDBRANCH  23  24
ENDBRANCH  21  23
ENDBRANCH   4  21
TORSDOF 6
ENDMDL
MODEL 3
REMARK VINA RESULT:    -8.157      3.841      5.311
REMARK INTER + INTRA:         -11.791
REMARK INTER:                 -10.995
REMARK INTRA:                  -0.796
REMARK UNBOUND:                -0.772
REMARK SMILES Cc1ccc(NC(=O)C2CC2)cc1NC(=O)N[C@@H](C)Cc1ccco1
REMARK SMILES IDX 14 1 15 2 16 3 17 4 13 7 2 8 3 9 4 10 12 11 5 12 1 13 6 14
REMARK SMILES IDX 7 15 8 16 9 18 10 19 11 20 18 21 19 22 20 23 21 24 22 25
REMARK SMILES IDX 25 26 23 27 24 28
REMARK H PARENT 14 5 17 6 6 17
ROOT
ATOM      1  N   UNL     1      49.874  54.997  18.910  1.00  0.00    -0.308 N 
ATOM      2  C   UNL     1      49.051  53.936  18.601  1.00  0.00    +0.319 C 
ATOM      3  O   UNL     1      47.872  53.807  18.896  1.00  0.00    -0.248 OA
ATOM      4  N   UNL     1      49.740  53.000  17.851  1.00  0.00    -0.335 N 
ATOM      5  H   UNL     1      50.628  55.125  18.254  1.00  0.00    +0.171 HD
ATOM      6  H   UNL     1      50.722  52.932  18.076  1.00  0.00    +0.165 HD
ENDROOT
BRANCH   1   7
ATOM      7  C   UNL     1      49.593  56.066  19.792  1.00  0.00    +0.047 A 
ATOM      8  C   UNL     1      50.308  56.153  21.005  1.00  0.00    -0.027 A 
ATOM      9  C   UNL     1      50.033  57.210  21.883  1.00  0.00    +0.008 A 
ATOM     10  C   UNL     1      49.052  58.155  21.580  1.00  0.00    +0.026 A 
ATOM     11  C   UNL     1      48.594  57.015  19.509  1.00  0.00    +0.052 A 
ATOM     12  C   UNL     1      48.313  58.057  20.398  1.00  0.00    +0.043 A 
ATOM     13  C   UNL     1      51.375  55.164  21.387  1.00  0.00    +0.046 C 
BRANCH  12  14
ATOM     14  N   UNL     1      47.323  59.040  20.185  1.00  0.00    -0.326 N 
ATOM     15  C   UNL     1      47.251  59.960  19.160  1.00  0.00    +0.227 C 
ATOM     16  O   UNL     1      48.005  60.056  18.204  1.00  0.00    -0.274 OA
ATOM     17  H   UNL     1      46.558  59.042  20.843  1.00  0.00    +0.169 HD
BRANCH  15  18
ATOM     18  C   UNL     1      46.101  60.918  19.229  1.00  0.00    +0.079 C 
ATOM     19  C   UNL     1      45.909  62.053  18.251  1.00  0.00    +0.014 C 
ATOM     20  C   UNL     1      46.267  62.351  19.680  1.00  0.00    +0.014 C 
ENDBRANCH  15  18
ENDBRANCH  12  14
ENDBRANCH   1   7
BRANCH   4  21
ATOM     21  C   UNL     1      49.084  51.751  17.451  1.00  0.00    +0.088 C 
ATOM     22  C   UNL     1      48.465  51.946  16.065  1.00  0.00    +0.031 C 
BRANCH  21  23
ATOM     23  C   UNL     1      50.071  50.568  17.486  1.00  0.00    +0.100 C 
BRANCH  23  24
ATOM     24  C   UNL     1      50.313  50.069  18.865  1.00  0.00    +0.105 A 
ATOM     25  C   UNL     1      49.955  48.913  19.526  1.00  0.00    +0.045 A 
ATOM     26  O   UNL     1      51.027  50.881  19.694  1.00  0.00    -0.469 OA
ATOM     27  C   UNL     1      50.483  49.023  20.834  1.00  0.00    +0.042 A 
ATOM     28  C   UNL     1      51.125  50.238  20.886  1.00  0.00    +0.195 A 
ENDBRANCH  23  24
ENDBRANCH  21  23
ENDBRANCH   4  21
TORSDOF 6
ENDMDL
MODEL 4
REMARK VINA RESULT:    -7.891      3.598      7.643
REMARK INTER + INTRA:         -11.431
REMARK INTER:                 -10.413
REMARK INTRA:                  -1.018
REMARK UNBOUND:                -0.772
REMARK SMILES Cc1ccc(NC(=O)C2CC2)cc1NC(=O)N[C@@H](C)Cc1ccco1
REMARK SMILES IDX 14 1 15 2 16 3 17 4 13 7 2 8 3 9 4 10 12 11 5 12 1 13 6 14
REMARK SMILES IDX 7 15 8 16 9 18 10 19 11 20 18 21 19 22 20 23 21 24 22 25
REMARK SMILES IDX 25 26 23 27 24 28
REMARK H PARENT 14 5 17 6 6 17
ROOT
ATOM      1  N   UNL     1      50.134  54.711  19.649  1.00  0.00    -0.308 N 
ATOM      2  C   UNL     1      48.895  55.310  19.711  1.00  0.00    +0.319 C 
ATOM      3  O   UNL     1      47.828  54.774  19.971  1.00  0.00    -0.248 OA
ATOM      4  N   UNL     1      49.009  56.667  19.463  1.00  0.00    -0.335 N 
ATOM      5  H   UNL     1      50.896  55.340  19.845  1.00  0.00    +0.171 HD
ATOM      6  H   UNL     1      49.744  56.908  18.814  1.00  0.00    +0.165 HD
ENDROOT
BRANCH   1   7
ATOM      7  C   UNL     1      50.414  53.325  19.680  1.00  0.00    +0.047 A 
ATOM      8  C   UNL     1      51.100  52.794  20.792  1.00  0.00    -0.027 A 
ATOM      9  C   UNL     1      51.381  51.422  20.829  1.00  0.00    +0.008 A 
ATOM     10  C   UNL     1      51.009  50.589  19.773  1.00  0.00    +0.026 A 
ATOM     11  C   UNL     1      50.063  52.476  18.615  1.00  0.00    +0.052 A 
ATOM     12  C   UNL     1      50.362  51.110  18.650  1.00  0.00    +0.043 A 
ATOM     13  C   UNL     1      51.526  53.644  21.959  1.00  0.00    +0.046 C 
BRANCH  12  14
ATOM     14  N   UNL     1      50.048  50.200  17.619  1.00  0.00    -0.326 N 
ATOM     15  C   UNL     1      48.974  49.337  17.549  1.00  0.00    +0.227 C 
ATOM     16  O   UNL     1      48.054  49.243  18.347  1.00  0.00    -0.274 OA
ATOM     17  H   UNL     1      50.665  50.211  16.820  1.00  0.00    +0.169 HD
BRANCH  15  18
ATOM     18  C   UNL     1      48.934  48.448  16.344  1.00  0.00    +0.079 C 
ATOM     19  C   UNL     1      49.544  48.827  15.015  1.00  0.00    +0.014 C 
ATOM     20  C   UNL     1      48.050  48.738  15.153  1.00  0.00    +0.014 C 
ENDBRANCH  15  18
ENDBRANCH  12  14
ENDBRANCH   1   7
BRANCH   4  21
ATOM     21  C   UNL     1      47.810  57.509  19.419  1.00  0.00    +0.088 C 
ATOM     22  C   UNL     1      47.674  58.238  20.758  1.00  0.00    +0.031 C 
BRANCH  21  23
ATOM     23  C   UNL     1      47.859  58.485  18.227  1.00  0.00    +0.100 C 
BRANCH  23  24
ATOM     24  C   UNL     1      47.495  57.834  16.942  1.00  0.00    +0.105 A 
ATOM     25  C   UNL     1      46.480  58.043  16.033  1.00  0.00    +0.045 A 
ATOM     26  O   UNL     1      48.290  56.808  16.528  1.00  0.00    -0.469 OA
ATOM     27  C   UNL     1      46.667  57.093  15.002  1.00  0.00    +0.042 A 
ATOM     28  C   UNL     1      47.780  56.365  15.350  1.00  0.00    +0.195 A 
ENDBRANCH  23  24
ENDBRANCH  21  23
ENDBRANCH   4  21
TORSDOF 6
ENDMDL
MODEL 5
REMARK VINA RESULT:    -7.592      2.198      2.773
REMARK INTER + INTRA:         -11.027
REMARK INTER:                 -11.587
REMARK INTRA:                   0.559
REMARK UNBOUND:                -0.772
REMARK SMILES Cc1ccc(NC(=O)C2CC2)cc1NC(=O)N[C@@H](C)Cc1ccco1
REMARK SMILES IDX 14 1 15 2 16 3 17 4 13 7 2 8 3 9 4 10 12 11 5 12 1 13 6 14
REMARK SMILES IDX 7 15 8 16 9 18 10 19 11 20 18 21 19 22 20 23 21 24 22 25
REMARK SMILES IDX 25 26 23 27 24 28
REMARK H PARENT 14 5 17 6 6 17
ROOT
ATOM      1  N   UNL     1      50.293  50.704  17.890  1.00  0.00    -0.308 N 
ATOM      2  C   UNL     1      49.247  49.875  17.549  1.00  0.00    +0.319 C 
ATOM      3  O   UNL     1      48.193  49.731  18.151  1.00  0.00    -0.248 OA
ATOM      4  N   UNL     1      49.528  49.214  16.366  1.00  0.00    -0.335 N 
ATOM      5  H   UNL     1      50.845  51.001  17.101  1.00  0.00    +0.171 HD
ATOM      6  H   UNL     1      50.507  49.007  16.233  1.00  0.00    +0.165 HD
ENDROOT
BRANCH   1   7
ATOM      7  C   UNL     1      50.457  51.417  19.102  1.00  0.00    +0.047 A 
ATOM      8  C   UNL     1      50.875  50.716  20.251  1.00  0.00    -0.027 A 
ATOM      9  C   UNL     1      51.039  51.416  21.455  1.00  0.00    +0.008 A 
ATOM     10  C   UNL     1      50.773  52.783  21.527  1.00  0.00    +0.026 A 
ATOM     11  C   UNL     1      50.175  52.791  19.195  1.00  0.00    +0.052 A 
ATOM     12  C   UNL     1      50.323  53.480  20.402  1.00  0.00    +0.043 A 
ATOM     13  C   UNL     1      51.175  49.241  20.234  1.00  0.00    +0.046 C 
BRANCH  12  14
ATOM     14  N   UNL     1      50.053  54.854  20.573  1.00  0.00    -0.326 N 
ATOM     15  C   UNL     1      49.233  55.658  19.808  1.00  0.00    +0.227 C 
ATOM     16  O   UNL     1      48.534  55.310  18.868  1.00  0.00    -0.274 OA
ATOM     17  H   UNL     1      50.484  55.290  21.375  1.00  0.00    +0.169 HD
BRANCH  15  18
ATOM     18  C   UNL     1      49.185  57.101  20.206  1.00  0.00    +0.079 C 
ATOM     19  C   UNL     1      49.306  57.569  21.638  1.00  0.00    +0.014 C 
ATOM     20  C   UNL     1      47.995  57.705  20.917  1.00  0.00    +0.014 C 
ENDBRANCH  15  18
ENDBRANCH  12  14
ENDBRANCH   1   7
BRANCH   4  21
ATOM     21  C   UNL     1      48.582  48.230  15.832  1.00  0.00    +0.088 C 
ATOM     22  C   UNL     1      48.570  47.011  16.756  1.00  0.00    +0.031 C 
BRANCH  21  23
ATOM     23  C   UNL     1      47.178  48.845  15.661  1.00  0.00    +0.100 C 
BRANCH  23  24
ATOM     24  C   UNL     1      46.350  48.106  14.672  1.00  0.00    +0.105 A 
ATOM     25  C   UNL     1      46.081  48.300  13.334  1.00  0.00    +0.045 A 
ATOM     26  O   UNL     1      45.692  47.002  15.126  1.00  0.00    -0.469 OA
ATOM     27  C   UNL     1      45.212  47.254  12.946  1.00  0.00    +0.042 A 
ATOM     28  C   UNL     1      45.005  46.492  14.072  1.00  0.00    +0.195 A 
ENDBRANCH  23  24
ENDBRANCH  21  23
ENDBRANCH   4  21
TORSDOF 6
ENDMDL
