MODEL 1
REMARK VINA RESULT:    -5.847      0.000      0.000
REMARK INTER + INTRA:          -8.058
REMARK INTER:                  -7.556
REMARK INTRA:                  -0.503
REMARK UNBOUND:                -0.503
REMARK SMILES CNc1ccc(Cl)c(COCC2CC2)n1
REMARK SMILES IDX 9 1 8 2 3 3 4 4 15 5 5 6 6 7 7 8 2 9 1 10 10 12 11 13 12 14
REMARK SMILES IDX 13 15 14 16
REMARK H PARENT 2 11
ROOT
ATOM      1  C   UNL     1      49.748  54.265  20.036  1.00  0.00    +0.217 C 
ENDROOT
BRANCH   1   2
ATOM      2  C   UNL     1      50.494  52.966  20.286  1.00  0.00    +0.087 A 
ATOM      3  C   UNL     1      50.915  50.763  19.610  1.00  0.00    +0.126 A 
ATOM      4  C   UNL     1      51.773  50.576  20.689  1.00  0.00    +0.048 A 
ATOM      5  N   UNL     1      50.278  51.934  19.421  1.00  0.00    -0.232 NA
ATOM      6  C   UNL     1      51.992  51.621  21.583  1.00  0.00    +0.026 A 
ATOM      7  C   UNL     1      51.343  52.835  21.384  1.00  0.00    +0.065 A 
ATOM      8 Cl   UNL     1      51.617  54.109  22.514  1.00  0.00    -0.082 Cl
BRANCH   3   9
ATOM      9  N   UNL     1      50.691  49.679  18.745  1.00  0.00    -0.373 N 
ATOM     10  C   UNL     1      49.366  49.089  18.874  1.00  0.00    +0.141 C 
ATOM     11  H   UNL     1      50.877  49.974  17.791  1.00  0.00    +0.161 HD
ENDBRANCH   3   9
ENDBRANCH   1   2
BRANCH   1  12
ATOM     12  O   UNL     1      50.514  55.190  19.259  1.00  0.00    -0.375 OA
BRANCH  12  13
ATOM     13  C   UNL     1      50.504  56.496  19.825  1.00  0.00    +0.164 C 
BRANCH  13  14
ATOM     14  C   UNL     1      49.453  56.606  20.889  1.00  0.00    +0.015 C 
ATOM     15  C   UNL     1      49.372  57.805  21.801  1.00  0.00    +0.006 C 
ATOM     16  C   UNL     1      48.302  57.574  20.766  1.00  0.00    +0.006 C 
ENDBRANCH  13  14
ENDBRANCH  12  13
ENDBRANCH   1  12
TORSDOF 5
ENDMDL
MODEL 2
REMARK VINA RESULT:    -5.825      3.072      6.276
REMARK INTER + INTRA:          -8.030
REMARK INTER:                  -7.633
REMARK INTRA:                  -0.398
REMARK UNBOUND:                -0.503
REMARK SMILES CNc1ccc(Cl)c(COCC2CC2)n1
REMARK SMILES IDX 9 1 8 2 3 3 4 4 15 5 5 6 6 7 7 8 2 9 1 10 10 12 11 13 12 14
REMARK SMILES IDX 13 15 14 16
REMARK H PARENT 2 11
ROOT
ATOM      1  C   UNL     1      51.978  53.509  20.413  1.00  0.00    +0.217 C 
ENDROOT
BRANCH   1   2
ATOM      2  C   UNL     1      51.492  54.892  20.811  1.00  0.00    +0.087 A 
ATOM      3  C   UNL     1      52.000  56.973  21.760  1.00  0.00    +0.126 A 
ATOM      4  C   UNL     1      50.685  57.392  21.590  1.00  0.00    +0.048 A 
ATOM      5  N   UNL     1      52.391  55.739  21.387  1.00  0.00    -0.232 NA
ATOM      6  C   UNL     1      49.757  56.530  21.011  1.00  0.00    +0.026 A 
ATOM      7  C   UNL     1      50.161  55.259  20.616  1.00  0.00    +0.065 A 
ATOM      8 Cl   UNL     1      48.990  54.204  19.917  1.00  0.00    -0.082 Cl
BRANCH   3   9
ATOM      9  N   UNL     1      52.904  57.854  22.376  1.00  0.00    -0.373 N 
ATOM     10  C   UNL     1      54.193  57.938  21.705  1.00  0.00    +0.141 C 
ATOM     11  H   UNL     1      52.468  58.767  22.462  1.00  0.00    +0.161 HD
ENDBRANCH   3   9
ENDBRANCH   1   2
BRANCH   1  12
ATOM     12  O   UNL     1      52.007  52.604  21.520  1.00  0.00    -0.375 OA
BRANCH  12  13
ATOM     13  C   UNL     1      50.939  51.665  21.466  1.00  0.00    +0.164 C 
BRANCH  13  14
ATOM     14  C   UNL     1      51.239  50.574  20.482  1.00  0.00    +0.015 C 
ATOM     15  C   UNL     1      50.692  49.179  20.655  1.00  0.00    +0.006 C 
ATOM     16  C   UNL     1      50.186  50.051  19.536  1.00  0.00    +0.006 C 
ENDBRANCH  13  14
ENDBRANCH  12  13
ENDBRANCH   1  12
TORSDOF 5
ENDMDL
MODEL 3
REMARK VINA RESULT:    -5.817      2.405      3.409
REMARK INTER + INTRA:          -8.020
REMARK INTER:                  -7.581
REMARK INTRA:                  -0.438
REMARK UNBOUND:                -0.503
REMARK SMILES CNc1ccc(Cl)c(COCC2CC2)n1
REMARK SMILES IDX 9 1 8 2 3 3 4 4 15 5 5 6 6 7 7 8 2 9 1 10 10 12 11 13 12 14
REMARK SMILES IDX 13 15 14 16
REMARK H PARENT 2 11
ROOT
ATOM      1  C   UNL     1      49.460  54.332  18.618  1.00  0.00    +0.217 C 
ENDROOT
BRANCH   1   2
ATOM      2  C   UNL     1      50.174  53.507  19.674  1.00  0.00    +0.087 A 
ATOM      3  C   UNL     1      51.189  53.443  21.785  1.00  0.00    +0.126 A 
ATOM      4  C   UNL     1      51.500  52.098  21.615  1.00  0.00    +0.048 A 
ATOM      5  N   UNL     1      50.548  54.136  20.825  1.00  0.00    -0.232 NA
ATOM      6  C   UNL     1      51.132  51.449  20.439  1.00  0.00    +0.026 A 
ATOM      7  C   UNL     1      50.461  52.161  19.450  1.00  0.00    +0.065 A 
ATOM      8 Cl   UNL     1      50.030  51.341  17.996  1.00  0.00    -0.082 Cl
BRANCH   3   9
ATOM      9  N   UNL     1      51.602  54.076  22.969  1.00  0.00    -0.373 N 
ATOM     10  C   UNL     1      51.688  55.525  22.860  1.00  0.00    +0.141 C 
ATOM     11  H   UNL     1      50.987  53.794  23.726  1.00  0.00    +0.161 HD
ENDBRANCH   3   9
ENDBRANCH   1   2
BRANCH   1  12
ATOM     12  O   UNL     1      49.701  55.733  18.768  1.00  0.00    -0.375 OA
BRANCH  12  13
ATOM     13  C   UNL     1      48.491  56.484  18.758  1.00  0.00    +0.164 C 
BRANCH  13  14
ATOM     14  C   UNL     1      47.944  56.630  20.146  1.00  0.00    +0.015 C 
ATOM     15  C   UNL     1      48.741  57.284  21.247  1.00  0.00    +0.006 C 
ATOM     16  C   UNL     1      47.521  57.972  20.692  1.00  0.00    +0.006 C 
ENDBRANCH  13  14
ENDBRANCH  12  13
ENDBRANCH   1  12
TORSDOF 5
ENDMDL
MODEL 4
REMARK VINA RESULT:    -5.815      2.208      2.631
REMARK INTER + INTRA:          -8.018
REMARK INTER:                  -7.620
REMARK INTRA:                  -0.397
REMARK UNBOUND:                -0.503
REMARK SMILES CNc1ccc(Cl)c(COCC2CC2)n1
REMARK SMILES IDX 9 1 8 2 3 3 4 4 15 5 5 6 6 7 7 8 2 9 1 10 10 12 11 13 12 14
REMARK SMILES IDX 13 15 14 16
REMARK H PARENT 2 11
ROOT
ATOM      1  C   UNL     1      51.542  55.016  19.103  1.00  0.00    +0.217 C 
ENDROOT
BRANCH   1   2
ATOM      2  C   UNL     1      51.131  53.606  18.718  1.00  0.00    +0.087 A 
ATOM      3  C   UNL     1      51.760  51.365  18.440  1.00  0.00    +0.126 A 
ATOM      4  C   UNL     1      50.479  51.040  18.004  1.00  0.00    +0.048 A 
ATOM      5  N   UNL     1      52.081  52.629  18.779  1.00  0.00    -0.232 NA
ATOM      6  C   UNL     1      49.505  52.033  17.929  1.00  0.00    +0.026 A 
ATOM      7  C   UNL     1      49.832  53.337  18.288  1.00  0.00    +0.065 A 
ATOM      8 Cl   UNL     1      48.614  54.552  18.170  1.00  0.00    -0.082 Cl
BRANCH   3   9
ATOM      9  N   UNL     1      52.728  50.348  18.474  1.00  0.00    -0.373 N 
ATOM     10  C   UNL     1      52.838  49.685  19.765  1.00  0.00    +0.141 C 
ATOM     11  H   UNL     1      52.536  49.685  17.729  1.00  0.00    +0.161 HD
ENDBRANCH   3   9
ENDBRANCH   1   2
BRANCH   1  12
ATOM     12  O   UNL     1      51.003  55.412  20.367  1.00  0.00    -0.375 OA
BRANCH  12  13
ATOM     13  C   UNL     1      50.494  56.741  20.334  1.00  0.00    +0.164 C 
BRANCH  13  14
ATOM     14  C   UNL     1      49.243  56.852  21.154  1.00  0.00    +0.015 C 
ATOM     15  C   UNL     1      48.848  58.144  21.825  1.00  0.00    +0.006 C 
ATOM     16  C   UNL     1      48.042  57.623  20.663  1.00  0.00    +0.006 C 
ENDBRANCH  13  14
ENDBRANCH  12  13
ENDBRANCH   1  12
TORSDOF 5
ENDMDL
MODEL 5
REMARK VINA RESULT:    -5.334      2.380      3.040
REMARK INTER + INTRA:          -7.396
REMARK INTER:                  -7.148
REMARK INTRA:                  -0.248
REMARK UNBOUND:                -0.503
REMARK SMILES CNc1ccc(Cl)c(COCC2CC2)n1
REMARK SMILES IDX 9 1 8 2 3 3 4 4 15 5 5 6 6 7 7 8 2 9 1 10 10 12 11 13 12 14
REMARK SMILES IDX 13 15 14 16
REMARK H PARENT 2 11
ROOT
ATOM      1  C   UNL     1      49.622  54.165  18.385  1.00  0.00    +0.217 C 
ENDROOT
BRANCH   1   2
ATOM      2  C   UNL     1      49.697  52.653  18.495  1.00  0.00    +0.087 A 
ATOM      3  C   UNL     1      50.667  50.787  19.528  1.00  0.00    +0.126 A 
ATOM      4  C   UNL     1      49.918  49.931  18.728  1.00  0.00    +0.048 A 
ATOM      5  N   UNL     1      50.566  52.124  19.403  1.00  0.00    -0.232 NA
ATOM      6  C   UNL     1      49.035  50.461  17.791  1.00  0.00    +0.026 A 
ATOM      7  C   UNL     1      48.921  51.842  17.667  1.00  0.00    +0.065 A 
ATOM      8 Cl   UNL     1      47.833  52.475  16.488  1.00  0.00    -0.082 Cl
BRANCH   3   9
ATOM      9  N   UNL     1      51.572  50.221  20.441  1.00  0.00    -0.373 N 
ATOM     10  C   UNL     1      52.779  49.695  19.821  1.00  0.00    +0.141 C 
ATOM     11  H   UNL     1      51.789  50.906  21.159  1.00  0.00    +0.161 HD
ENDBRANCH   3   9
ENDBRANCH   1   2
BRANCH   1  12
ATOM     12  O   UNL     1      50.053  54.818  19.582  1.00  0.00    -0.375 OA
BRANCH  12  13
ATOM     13  C   UNL     1      48.977  55.471  20.248  1.00  0.00    +0.164 C 
BRANCH  13  14
ATOM     14  C   UNL     1      49.253  56.938  20.393  1.00  0.00    +0.015 C 
ATOM     15  C   UNL     1      48.247  57.876  21.012  1.00  0.00    +0.006 C 
ATOM     16  C   UNL     1      49.527  57.561  21.740  1.00  0.00    +0.006 C 
ENDBRANCH  13  14
ENDBRANCH  12  13
ENDBRANCH   1  12
TORSDOF 5
ENDMDL
