MODEL 1
REMARK VINA RESULT:    -6.829      0.000      0.000
REMARK INTER + INTRA:          -9.499
REMARK INTER:                  -8.626
REMARK INTRA:                  -0.873
REMARK UNBOUND:                -0.873
REMARK SMILES N/C(=N/O)[C@@H]1CCC[C@@H]1NS(=O)(=O)N1CCOCC1
REMARK SMILES IDX 7 1 6 2 5 3 9 4 8 5 2 6 3 7 1 8 4 11 10 13 11 15 12 16 13 17
REMARK SMILES IDX 14 18 15 19 19 20 16 21 18 22 17 23
REMARK H PARENT 1 9 1 10 4 12 10 14
ROOT
ATOM      1  C   UNL     1      46.881  49.556  16.566  1.00  0.00    +0.002 C 
ATOM      2  C   UNL     1      47.750  48.405  16.047  1.00  0.00    +0.013 C 
ATOM      3  C   UNL     1      49.150  48.996  15.840  1.00  0.00    +0.077 C 
ATOM      4  C   UNL     1      49.215  50.030  16.974  1.00  0.00    +0.081 C 
ATOM      5  C   UNL     1      47.840  50.692  16.925  1.00  0.00    +0.021 C 
ENDROOT
BRANCH   3   6
ATOM      6  C   UNL     1      49.364  49.607  14.440  1.00  0.00    +0.143 C 
ATOM      7  N   UNL     1      50.546  49.806  13.919  1.00  0.00    -0.076 NA
ATOM      8  N   UNL     1      48.299  50.027  13.684  1.00  0.00    -0.384 N 
ATOM      9  H   UNL     1      47.446  49.485  13.734  1.00  0.00    +0.158 HD
ATOM     10  H   UNL     1      48.575  50.224  12.726  1.00  0.00    +0.158 HD
BRANCH   7  11
ATOM     11  O   UNL     1      51.569  49.338  14.744  1.00  0.00    -0.409 OA
ATOM     12  H   UNL     1      51.715  48.428  14.421  1.00  0.00    +0.330 HD
ENDBRANCH   7  11
ENDBRANCH   3   6
BRANCH   4  13
ATOM     13  N   UNL     1      50.283  51.037  16.853  1.00  0.00    -0.198 NA
ATOM     14  H   UNL     1      50.730  51.046  15.931  1.00  0.00    +0.142 HD
BRANCH  13  15
ATOM     15  S   UNL     1      51.508  51.024  17.994  1.00  0.00    +0.279 S 
ATOM     16  O   UNL     1      52.750  50.917  17.265  1.00  0.00    -0.195 OA
ATOM     17  O   UNL     1      51.178  50.128  19.075  1.00  0.00    -0.195 OA
BRANCH  15  18
ATOM     18  N   UNL     1      51.391  52.604  18.567  1.00  0.00    -0.184 NA
ATOM     19  C   UNL     1      52.435  52.965  19.581  1.00  0.00    +0.132 C 
ATOM     20  C   UNL     1      50.028  53.055  18.980  1.00  0.00    +0.132 C 
ATOM     21  C   UNL     1      51.829  53.053  20.985  1.00  0.00    +0.177 C 
ATOM     22  C   UNL     1      50.120  54.302  19.865  1.00  0.00    +0.177 C 
ATOM     23  O   UNL     1      50.814  54.063  21.097  1.00  0.00    -0.379 OA
ENDBRANCH  15  18
ENDBRANCH  13  15
ENDBRANCH   4  13
TORSDOF 5
ENDMDL
MODEL 2
REMARK VINA RESULT:    -6.724      3.865      6.964
REMARK INTER + INTRA:          -9.366
REMARK INTER:                  -8.907
REMARK INTRA:                  -0.459
REMARK UNBOUND:                -0.873
REMARK SMILES N/C(=N/O)[C@@H]1CCC[C@@H]1NS(=O)(=O)N1CCOCC1
REMARK SMILES IDX 7 1 6 2 5 3 9 4 8 5 2 6 3 7 1 8 4 11 10 13 11 15 12 16 13 17
REMARK SMILES IDX 14 18 15 19 19 20 16 21 18 22 17 23
REMARK H PARENT 1 9 1 10 4 12 10 14
ROOT
ATOM      1  C   UNL     1      48.733  56.673  20.642  1.00  0.00    +0.002 C 
ATOM      2  C   UNL     1      49.814  57.721  20.351  1.00  0.00    +0.013 C 
ATOM      3  C   UNL     1      51.140  56.953  20.303  1.00  0.00    +0.077 C 
ATOM      4  C   UNL     1      50.692  55.607  19.712  1.00  0.00    +0.081 C 
ATOM      5  C   UNL     1      49.398  55.307  20.465  1.00  0.00    +0.021 C 
ENDROOT
BRANCH   3   6
ATOM      6  C   UNL     1      51.831  56.821  21.675  1.00  0.00    +0.143 C 
ATOM      7  N   UNL     1      53.125  56.693  21.817  1.00  0.00    -0.076 NA
ATOM      8  N   UNL     1      51.096  56.778  22.833  1.00  0.00    -0.384 N 
ATOM      9  H   UNL     1      50.265  57.352  22.882  1.00  0.00    +0.158 HD
ATOM     10  H   UNL     1      51.686  56.882  23.654  1.00  0.00    +0.158 HD
BRANCH   7  11
ATOM     11  O   UNL     1      53.796  56.762  20.596  1.00  0.00    -0.409 OA
ATOM     12  H   UNL     1      54.669  57.123  20.842  1.00  0.00    +0.330 HD
ENDBRANCH   7  11
ENDBRANCH   3   6
BRANCH   4  13
ATOM     13  N   UNL     1      51.651  54.500  19.861  1.00  0.00    -0.198 NA
ATOM     14  H   UNL     1      52.628  54.807  19.875  1.00  0.00    +0.142 HD
BRANCH  13  15
ATOM     15  S   UNL     1      51.551  53.223  18.782  1.00  0.00    +0.279 S 
ATOM     16  O   UNL     1      52.861  53.077  18.193  1.00  0.00    -0.195 OA
ATOM     17  O   UNL     1      50.360  53.340  17.977  1.00  0.00    -0.195 OA
BRANCH  15  18
ATOM     18  N   UNL     1      51.334  51.945  19.860  1.00  0.00    -0.184 NA
ATOM     19  C   UNL     1      52.614  51.336  20.349  1.00  0.00    +0.132 C 
ATOM     20  C   UNL     1      50.336  50.908  19.458  1.00  0.00    +0.132 C 
ATOM     21  C   UNL     1      52.848  49.964  19.710  1.00  0.00    +0.177 C 
ATOM     22  C   UNL     1      50.544  49.623  20.265  1.00  0.00    +0.177 C 
ATOM     23  O   UNL     1      51.820  49.013  20.027  1.00  0.00    -0.379 OA
ENDBRANCH  15  18
ENDBRANCH  13  15
ENDBRANCH   4  13
TORSDOF 5
ENDMDL
MODEL 3
REMARK VINA RESULT:    -6.606      3.280      4.538
REMARK INTER + INTRA:          -9.217
REMARK INTER:                  -9.143
REMARK INTRA:                  -0.074
REMARK UNBOUND:                -0.873
REMARK SMILES N/C(=N/O)[C@@H]1CCC[C@@H]1NS(=O)(=O)N1CCOCC1
REMARK SMILES IDX 7 1 6 2 5 3 9 4 8 5 2 6 3 7 1 8 4 11 10 13 11 15 12 16 13 17
REMARK SMILES IDX 14 18 15 19 19 20 16 21 18 22 17 23
REMARK H PARENT 1 9 1 10 4 12 10 14
ROOT
ATOM      1  C   UNL     1      49.560  51.008  17.512  1.00  0.00    +0.002 C 
ATOM      2  C   UNL     1      49.831  49.921  18.559  1.00  0.00    +0.013 C 
ATOM      3  C   UNL     1      50.707  50.582  19.630  1.00  0.00    +0.077 C 
ATOM      4  C   UNL     1      50.171  52.021  19.618  1.00  0.00    +0.081 C 
ATOM      5  C   UNL     1      50.022  52.328  18.130  1.00  0.00    +0.021 C 
ENDROOT
BRANCH   3   6
ATOM      6  C   UNL     1      52.218  50.488  19.341  1.00  0.00    +0.143 C 
ATOM      7  N   UNL     1      53.132  50.550  20.273  1.00  0.00    -0.076 NA
ATOM      8  N   UNL     1      52.684  50.385  18.054  1.00  0.00    -0.384 N 
ATOM      9  H   UNL     1      52.139  49.837  17.401  1.00  0.00    +0.158 HD
ATOM     10  H   UNL     1      53.671  50.141  18.032  1.00  0.00    +0.158 HD
BRANCH   7  11
ATOM     11  O   UNL     1      52.574  50.639  21.549  1.00  0.00    -0.409 OA
ATOM     12  H   UNL     1      52.789  49.772  21.945  1.00  0.00    +0.330 HD
ENDBRANCH   7  11
ENDBRANCH   3   6
BRANCH   4  13
ATOM     13  N   UNL     1      51.029  53.022  20.274  1.00  0.00    -0.198 NA
ATOM     14  H   UNL     1      50.580  53.483  21.071  1.00  0.00    +0.142 HD
BRANCH  13  15
ATOM     15  S   UNL     1      51.700  54.226  19.322  1.00  0.00    +0.279 S 
ATOM     16  O   UNL     1      50.598  54.994  18.791  1.00  0.00    -0.195 OA
ATOM     17  O   UNL     1      52.729  53.679  18.473  1.00  0.00    -0.195 OA
BRANCH  15  18
ATOM     18  N   UNL     1      52.441  55.161  20.513  1.00  0.00    -0.184 NA
ATOM     19  C   UNL     1      51.712  55.172  21.822  1.00  0.00    +0.132 C 
ATOM     20  C   UNL     1      52.874  56.530  20.100  1.00  0.00    +0.132 C 
ATOM     21  C   UNL     1      51.016  56.517  22.052  1.00  0.00    +0.177 C 
ATOM     22  C   UNL     1      53.117  57.410  21.330  1.00  0.00    +0.177 C 
ATOM     23  O   UNL     1      51.931  57.621  22.109  1.00  0.00    -0.379 OA
ENDBRANCH  15  18
ENDBRANCH  13  15
ENDBRANCH   4  13
TORSDOF 5
ENDMDL
MODEL 4
REMARK VINA RESULT:    -6.582      2.427      5.916
REMARK INTER + INTRA:          -9.186
REMARK INTER:                  -8.796
REMARK INTRA:                  -0.390
REMARK UNBOUND:                -0.873
REMARK SMILES N/C(=N/O)[C@@H]1CCC[C@@H]1NS(=O)(=O)N1CCOCC1
REMARK SMILES IDX 7 1 6 2 5 3 9 4 8 5 2 6 3 7 1 8 4 11 10 13 11 15 12 16 13 17
REMARK SMILES IDX 14 18 15 19 19 20 16 21 18 22 17 23
REMARK H PARENT 1 9 1 10 4 12 10 14
ROOT
ATOM      1  C   UNL     1      50.600  53.383  20.212  1.00  0.00    +0.002 C 
ATOM      2  C   UNL     1      52.120  53.281  20.044  1.00  0.00    +0.013 C 
ATOM      3  C   UNL     1      52.373  51.953  19.319  1.00  0.00    +0.077 C 
ATOM      4  C   UNL     1      51.133  51.857  18.417  1.00  0.00    +0.081 C 
ATOM      5  C   UNL     1      49.994  52.283  19.339  1.00  0.00    +0.021 C 
ENDROOT
BRANCH   3   6
ATOM      6  C   UNL     1      52.535  50.750  20.270  1.00  0.00    +0.143 C 
ATOM      7  N   UNL     1      53.014  49.595  19.888  1.00  0.00    -0.076 NA
ATOM      8  N   UNL     1      52.124  50.824  21.576  1.00  0.00    -0.384 N 
ATOM      9  H   UNL     1      52.248  51.705  22.058  1.00  0.00    +0.158 HD
ATOM     10  H   UNL     1      52.465  50.036  22.121  1.00  0.00    +0.158 HD
BRANCH   7  11
ATOM     11  O   UNL     1      53.421  49.611  18.553  1.00  0.00    -0.409 OA
ATOM     12  H   UNL     1      53.674  50.543  18.410  1.00  0.00    +0.330 HD
ENDBRANCH   7  11
ENDBRANCH   3   6
BRANCH   4  13
ATOM     13  N   UNL     1      50.870  50.527  17.844  1.00  0.00    -0.198 NA
ATOM     14  H   UNL     1      51.719  50.034  17.551  1.00  0.00    +0.142 HD
BRANCH  13  15
ATOM     15  S   UNL     1      49.778  50.419  16.578  1.00  0.00    +0.279 S 
ATOM     16  O   UNL     1      50.521  49.957  15.430  1.00  0.00    -0.195 OA
ATOM     17  O   UNL     1      48.950  51.599  16.528  1.00  0.00    -0.195 OA
BRANCH  15  18
ATOM     18  N   UNL     1      48.830  49.134  17.118  1.00  0.00    -0.184 NA
ATOM     19  C   UNL     1      48.575  48.084  16.079  1.00  0.00    +0.132 C 
ATOM     20  C   UNL     1      47.586  49.501  17.861  1.00  0.00    +0.132 C 
ATOM     21  C   UNL     1      47.131  48.149  15.575  1.00  0.00    +0.177 C 
ATOM     22  C   UNL     1      46.619  48.314  17.909  1.00  0.00    +0.177 C 
ATOM     23  O   UNL     1      46.163  47.913  16.609  1.00  0.00    -0.379 OA
ENDBRANCH  15  18
ENDBRANCH  13  15
ENDBRANCH   4  13
TORSDOF 5
ENDMDL
MODEL 5
REMARK VINA RESULT:    -6.394      2.736      3.930
REMARK INTER + INTRA:          -8.949
REMARK INTER:                  -8.168
REMARK INTRA:                  -0.780
REMARK UNBOUND:                -0.873
REMARK SMILES N/C(=N/O)[C@@H]1CCC[C@@H]1NS(=O)(=O)N1CCOCC1
REMARK SMILES IDX 7 1 6 2 5 3 9 4 8 5 2 6 3 7 1 8 4 11 10 13 11 15 12 16 13 17
REMARK SMILES IDX 14 18 15 19 19 20 16 21 18 22 17 23
REMARK H PARENT 1 9 1 10 4 12 10 14
ROOT
ATOM      1  C   UNL     1      48.320  50.864  17.151  1.00  0.00    +0.002 C 
ATOM      2  C   UNL     1      49.104  50.161  18.266  1.00  0.00    +0.013 C 
ATOM      3  C   UNL     1      50.228  51.127  18.660  1.00  0.00    +0.077 C 
ATOM      4  C   UNL     1      49.548  52.488  18.451  1.00  0.00    +0.081 C 
ATOM      5  C   UNL     1      48.809  52.312  17.126  1.00  0.00    +0.021 C 
ENDROOT
BRANCH   3   6
ATOM      6  C   UNL     1      51.516  50.951  17.831  1.00  0.00    +0.143 C 
ATOM      7  N   UNL     1      52.700  51.295  18.266  1.00  0.00    -0.076 NA
ATOM      8  N   UNL     1      51.468  50.463  16.550  1.00  0.00    -0.384 N 
ATOM      9  H   UNL     1      50.787  49.743  16.347  1.00  0.00    +0.158 HD
ATOM     10  H   UNL     1      52.394  50.225  16.205  1.00  0.00    +0.158 HD
BRANCH   7  11
ATOM     11  O   UNL     1      52.661  51.765  19.578  1.00  0.00    -0.409 OA
ATOM     12  H   UNL     1      52.542  52.728  19.465  1.00  0.00    +0.330 HD
ENDBRANCH   7  11
ENDBRANCH   3   6
BRANCH   4  13
ATOM     13  N   UNL     1      50.455  53.647  18.393  1.00  0.00    -0.198 NA
ATOM     14  H   UNL     1      51.329  53.454  17.894  1.00  0.00    +0.142 HD
BRANCH  13  15
ATOM     15  S   UNL     1      50.864  54.398  19.832  1.00  0.00    +0.279 S 
ATOM     16  O   UNL     1      52.261  54.748  19.733  1.00  0.00    -0.195 OA
ATOM     17  O   UNL     1      50.341  53.655  20.952  1.00  0.00    -0.195 OA
BRANCH  15  18
ATOM     18  N   UNL     1      49.973  55.821  19.683  1.00  0.00    -0.184 NA
ATOM     19  C   UNL     1      50.579  56.997  20.389  1.00  0.00    +0.132 C 
ATOM     20  C   UNL     1      48.505  55.708  19.939  1.00  0.00    +0.132 C 
ATOM     21  C   UNL     1      49.787  57.346  21.653  1.00  0.00    +0.177 C 
ATOM     22  C   UNL     1      47.899  57.090  20.203  1.00  0.00    +0.177 C 
ATOM     23  O   UNL     1      48.427  57.717  21.380  1.00  0.00    -0.379 OA
ENDBRANCH  15  18
ENDBRANCH  13  15
ENDBRANCH   4  13
TORSDOF 5
ENDMDL
