MODEL 1
REMARK VINA RESULT:    -6.770      0.000      0.000
REMARK INTER + INTRA:         -10.014
REMARK INTER:                  -9.343
REMARK INTRA:                  -0.672
REMARK UNBOUND:                -0.672
REMARK SMILES C[C@@H]1C[C@@H]1c1ccc(C[C@H]([NH3+])CCC(=O)[O-])o1
REMARK SMILES IDX 10 1 9 2 8 3 5 4 6 5 17 6 7 7 4 8 2 9 3 10 1 11 12 12 13 13
REMARK SMILES IDX 14 14 15 15 16 16 11 17
REMARK H PARENT 11 18 11 19 11 20
ROOT
ATOM      1  C   UNL     1      51.883  49.888  20.015  1.00  0.00    +0.188 C 
ENDROOT
BRANCH   1   2
ATOM      2  C   UNL     1      50.567  49.099  20.156  1.00  0.00    +0.140 C 
BRANCH   2   3
ATOM      3  C   UNL     1      49.518  49.491  19.173  1.00  0.00    +0.110 A 
ATOM      4  C   UNL     1      48.676  50.809  17.638  1.00  0.00    +0.107 A 
ATOM      5  C   UNL     1      47.772  49.785  17.807  1.00  0.00    +0.046 A 
ATOM      6  O   UNL     1      49.745  50.632  18.461  1.00  0.00    -0.466 OA
ATOM      7  C   UNL     1      48.312  48.935  18.802  1.00  0.00    +0.046 A 
BRANCH   4   8
ATOM      8  C   UNL     1      48.530  51.979  16.633  1.00  0.00    +0.059 C 
ATOM      9  C   UNL     1      48.629  53.417  17.088  1.00  0.00    -0.003 C 
ATOM     10  C   UNL     1      47.296  52.845  16.689  1.00  0.00    +0.016 C 
ATOM     11  C   UNL     1      48.873  53.804  18.506  1.00  0.00    +0.008 C 
ENDBRANCH   4   8
ENDBRANCH   2   3
ENDBRANCH   1   2
BRANCH   1  12
ATOM     12  C   UNL     1      52.125  50.862  21.191  1.00  0.00    +0.071 C 
BRANCH  12  13
ATOM     13  C   UNL     1      51.105  51.988  21.393  1.00  0.00    +0.059 C 
BRANCH  13  14
ATOM     14  C   UNL     1      51.771  53.330  21.141  1.00  0.00    +0.042 C 
ATOM     15  O   UNL     1      52.226  53.519  19.992  1.00  0.00    -0.550 OA
ATOM     16  O   UNL     1      51.944  53.990  22.216  1.00  0.00    -0.550 OA
ENDBRANCH  13  14
ENDBRANCH  12  13
ENDBRANCH   1  12
BRANCH   1  17
ATOM     17  N   UNL     1      53.022  48.944  19.860  1.00  0.00    -0.355 N 
ATOM     18  H   UNL     1      52.865  48.122  20.508  1.00  0.00    +0.344 HD
ATOM     19  H   UNL     1      53.913  49.332  20.165  1.00  0.00    +0.344 HD
ATOM     20  H   UNL     1      53.108  48.577  18.909  1.00  0.00    +0.344 HD
ENDBRANCH   1  17
TORSDOF 7
ENDMDL
MODEL 2
REMARK VINA RESULT:    -6.567      3.013      5.208
REMARK INTER + INTRA:          -9.734
REMARK INTER:                  -9.170
REMARK INTRA:                  -0.565
REMARK UNBOUND:                -0.672
REMARK SMILES C[C@@H]1C[C@@H]1c1ccc(C[C@H]([NH3+])CCC(=O)[O-])o1
REMARK SMILES IDX 10 1 9 2 8 3 5 4 6 5 17 6 7 7 4 8 2 9 3 10 1 11 12 12 13 13
REMARK SMILES IDX 14 14 15 15 16 16 11 17
REMARK H PARENT 11 18 11 19 11 20
ROOT
ATOM      1  C   UNL     1      51.140  52.216  21.528  1.00  0.00    +0.188 C 
ENDROOT
BRANCH   1   2
ATOM      2  C   UNL     1      51.632  53.549  22.125  1.00  0.00    +0.140 C 
BRANCH   2   3
ATOM      3  C   UNL     1      51.484  54.714  21.209  1.00  0.00    +0.110 A 
ATOM      4  C   UNL     1      50.308  56.241  20.168  1.00  0.00    +0.107 A 
ATOM      5  C   UNL     1      51.618  56.439  19.793  1.00  0.00    +0.046 A 
ATOM      6  O   UNL     1      50.221  55.198  21.037  1.00  0.00    -0.466 OA
ATOM      7  C   UNL     1      52.378  55.450  20.461  1.00  0.00    +0.046 A 
BRANCH   4   8
ATOM      8  C   UNL     1      49.103  57.099  19.707  1.00  0.00    +0.059 C 
ATOM      9  C   UNL     1      48.454  58.098  20.638  1.00  0.00    -0.003 C 
ATOM     10  C   UNL     1      47.739  56.821  20.289  1.00  0.00    +0.016 C 
ATOM     11  C   UNL     1      48.919  58.326  22.034  1.00  0.00    +0.008 C 
ENDBRANCH   4   8
ENDBRANCH   2   3
ENDBRANCH   1   2
BRANCH   1  12
ATOM     12  C   UNL     1      50.796  52.325  20.025  1.00  0.00    +0.071 C 
BRANCH  12  13
ATOM     13  C   UNL     1      51.300  51.207  19.105  1.00  0.00    +0.059 C 
BRANCH  13  14
ATOM     14  C   UNL     1      52.392  51.748  18.198  1.00  0.00    +0.042 C 
ATOM     15  O   UNL     1      52.533  52.990  18.175  1.00  0.00    -0.550 OA
ATOM     16  O   UNL     1      52.872  50.849  17.434  1.00  0.00    -0.550 OA
ENDBRANCH  13  14
ENDBRANCH  12  13
ENDBRANCH   1  12
BRANCH   1  17
ATOM     17  N   UNL     1      52.150  51.152  21.769  1.00  0.00    -0.355 N 
ATOM     18  H   UNL     1      51.656  50.217  21.776  1.00  0.00    +0.344 HD
ATOM     19  H   UNL     1      52.587  51.209  22.688  1.00  0.00    +0.344 HD
ATOM     20  H   UNL     1      52.871  51.116  21.043  1.00  0.00    +0.344 HD
ENDBRANCH   1  17
TORSDOF 7
ENDMDL
MODEL 3
REMARK VINA RESULT:    -6.531      2.419      5.536
REMARK INTER + INTRA:          -9.684
REMARK INTER:                  -9.066
REMARK INTRA:                  -0.619
REMARK UNBOUND:                -0.672
REMARK SMILES C[C@@H]1C[C@@H]1c1ccc(C[C@H]([NH3+])CCC(=O)[O-])o1
REMARK SMILES IDX 10 1 9 2 8 3 5 4 6 5 17 6 7 7 4 8 2 9 3 10 1 11 12 12 13 13
REMARK SMILES IDX 14 14 15 15 16 16 11 17
REMARK H PARENT 11 18 11 19 11 20
ROOT
ATOM      1  C   UNL     1      52.028  51.221  18.289  1.00  0.00    +0.188 C 
ENDROOT
BRANCH   1   2
ATOM      2  C   UNL     1      52.392  52.684  18.608  1.00  0.00    +0.140 C 
BRANCH   2   3
ATOM      3  C   UNL     1      52.062  53.101  20.000  1.00  0.00    +0.110 A 
ATOM      4  C   UNL     1      51.786  54.597  21.576  1.00  0.00    +0.107 A 
ATOM      5  C   UNL     1      51.520  53.375  22.152  1.00  0.00    +0.046 A 
ATOM      6  O   UNL     1      52.108  54.438  20.264  1.00  0.00    -0.466 OA
ATOM      7  C   UNL     1      51.703  52.407  21.136  1.00  0.00    +0.046 A 
BRANCH   4   8
ATOM      8  C   UNL     1      51.696  55.967  22.295  1.00  0.00    +0.059 C 
ATOM      9  C   UNL     1      50.562  56.925  22.011  1.00  0.00    -0.003 C 
ATOM     10  C   UNL     1      51.946  57.228  21.505  1.00  0.00    +0.016 C 
ATOM     11  C   UNL     1      49.471  56.625  21.043  1.00  0.00    +0.008 C 
ENDBRANCH   4   8
ENDBRANCH   2   3
ENDBRANCH   1   2
BRANCH   1  12
ATOM     12  C   UNL     1      50.505  51.004  18.132  1.00  0.00    +0.071 C 
BRANCH  12  13
ATOM     13  C   UNL     1      49.850  49.943  19.024  1.00  0.00    +0.059 C 
BRANCH  13  14
ATOM     14  C   UNL     1      48.843  49.147  18.212  1.00  0.00    +0.042 C 
ATOM     15  O   UNL     1      49.070  49.047  16.987  1.00  0.00    -0.550 OA
ATOM     16  O   UNL     1      47.798  48.867  18.884  1.00  0.00    -0.550 OA
ENDBRANCH  13  14
ENDBRANCH  12  13
ENDBRANCH   1  12
BRANCH   1  17
ATOM     17  N   UNL     1      52.759  50.774  17.074  1.00  0.00    -0.355 N 
ATOM     18  H   UNL     1      53.456  50.030  17.358  1.00  0.00    +0.344 HD
ATOM     19  H   UNL     1      53.333  51.504  16.655  1.00  0.00    +0.344 HD
ATOM     20  H   UNL     1      52.142  50.366  16.366  1.00  0.00    +0.344 HD
ENDBRANCH   1  17
TORSDOF 7
ENDMDL
MODEL 4
REMARK VINA RESULT:    -6.528      1.372      2.613
REMARK INTER + INTRA:          -9.680
REMARK INTER:                  -8.992
REMARK INTRA:                  -0.688
REMARK UNBOUND:                -0.672
REMARK SMILES C[C@@H]1C[C@@H]1c1ccc(C[C@H]([NH3+])CCC(=O)[O-])o1
REMARK SMILES IDX 10 1 9 2 8 3 5 4 6 5 17 6 7 7 4 8 2 9 3 10 1 11 12 12 13 13
REMARK SMILES IDX 14 14 15 15 16 16 11 17
REMARK H PARENT 11 18 11 19 11 20
ROOT
ATOM      1  C   UNL     1      51.851  50.094  19.968  1.00  0.00    +0.188 C 
ENDROOT
BRANCH   1   2
ATOM      2  C   UNL     1      50.396  49.595  19.862  1.00  0.00    +0.140 C 
BRANCH   2   3
ATOM      3  C   UNL     1      49.665  50.109  18.671  1.00  0.00    +0.110 A 
ATOM      4  C   UNL     1      48.368  49.866  16.922  1.00  0.00    +0.107 A 
ATOM      5  C   UNL     1      48.705  51.200  16.971  1.00  0.00    +0.046 A 
ATOM      6  O   UNL     1      48.942  49.198  17.958  1.00  0.00    -0.466 OA
ATOM      7  C   UNL     1      49.547  51.358  18.098  1.00  0.00    +0.046 A 
BRANCH   4   8
ATOM      8  C   UNL     1      47.439  49.214  15.867  1.00  0.00    +0.059 C 
ATOM      9  C   UNL     1      46.003  48.875  16.195  1.00  0.00    -0.003 C 
ATOM     10  C   UNL     1      47.020  47.776  16.049  1.00  0.00    +0.016 C 
ATOM     11  C   UNL     1      45.390  49.142  17.526  1.00  0.00    +0.008 C 
ENDBRANCH   4   8
ENDBRANCH   2   3
ENDBRANCH   1   2
BRANCH   1  12
ATOM     12  C   UNL     1      52.096  50.958  21.226  1.00  0.00    +0.071 C 
BRANCH  12  13
ATOM     13  C   UNL     1      51.050  52.027  21.561  1.00  0.00    +0.059 C 
BRANCH  13  14
ATOM     14  C   UNL     1      51.658  53.408  21.378  1.00  0.00    +0.042 C 
ATOM     15  O   UNL     1      52.066  53.689  20.230  1.00  0.00    -0.550 OA
ATOM     16  O   UNL     1      51.843  54.002  22.489  1.00  0.00    -0.550 OA
ENDBRANCH  13  14
ENDBRANCH  12  13
ENDBRANCH   1  12
BRANCH   1  17
ATOM     17  N   UNL     1      52.785  48.939  19.923  1.00  0.00    -0.355 N 
ATOM     18  H   UNL     1      52.215  48.047  19.953  1.00  0.00    +0.344 HD
ATOM     19  H   UNL     1      53.389  48.874  20.740  1.00  0.00    +0.344 HD
ATOM     20  H   UNL     1      53.349  48.916  19.069  1.00  0.00    +0.344 HD
ENDBRANCH   1  17
TORSDOF 7
ENDMDL
MODEL 5
REMARK VINA RESULT:    -6.408      2.243      3.386
REMARK INTER + INTRA:          -9.515
REMARK INTER:                  -8.982
REMARK INTRA:                  -0.533
REMARK UNBOUND:                -0.672
REMARK SMILES C[C@@H]1C[C@@H]1c1ccc(C[C@H]([NH3+])CCC(=O)[O-])o1
REMARK SMILES IDX 10 1 9 2 8 3 5 4 6 5 17 6 7 7 4 8 2 9 3 10 1 11 12 12 13 13
REMARK SMILES IDX 14 14 15 15 16 16 11 17
REMARK H PARENT 11 18 11 19 11 20
ROOT
ATOM      1  C   UNL     1      51.345  49.559  19.842  1.00  0.00    +0.188 C 
ENDROOT
BRANCH   1   2
ATOM      2  C   UNL     1      49.934  48.950  19.951  1.00  0.00    +0.140 C 
BRANCH   2   3
ATOM      3  C   UNL     1      49.090  49.155  18.741  1.00  0.00    +0.110 A 
ATOM      4  C   UNL     1      47.165  49.326  17.709  1.00  0.00    +0.107 A 
ATOM      5  C   UNL     1      48.135  49.493  16.747  1.00  0.00    +0.046 A 
ATOM      6  O   UNL     1      47.739  49.129  18.926  1.00  0.00    -0.466 OA
ATOM      7  C   UNL     1      49.380  49.378  17.411  1.00  0.00    +0.046 A 
BRANCH   4   8
ATOM      8  C   UNL     1      45.636  49.391  17.463  1.00  0.00    +0.059 C 
ATOM      9  C   UNL     1      44.713  48.322  17.998  1.00  0.00    -0.003 C 
ATOM     10  C   UNL     1      45.001  48.396  16.524  1.00  0.00    +0.016 C 
ATOM     11  C   UNL     1      45.196  47.154  18.787  1.00  0.00    +0.008 C 
ENDBRANCH   4   8
ENDBRANCH   2   3
ENDBRANCH   1   2
BRANCH   1  12
ATOM     12  C   UNL     1      51.521  50.821  20.717  1.00  0.00    +0.071 C 
BRANCH  12  13
ATOM     13  C   UNL     1      52.318  51.986  20.119  1.00  0.00    +0.059 C 
BRANCH  13  14
ATOM     14  C   UNL     1      51.994  52.119  18.641  1.00  0.00    +0.042 C 
ATOM     15  O   UNL     1      52.930  51.893  17.843  1.00  0.00    -0.550 OA
ATOM     16  O   UNL     1      50.852  52.646  18.445  1.00  0.00    -0.550 OA
ENDBRANCH  13  14
ENDBRANCH  12  13
ENDBRANCH   1  12
BRANCH   1  17
ATOM     17  N   UNL     1      52.365  48.530  20.177  1.00  0.00    -0.355 N 
ATOM     18  H   UNL     1      51.960  47.576  19.965  1.00  0.00    +0.344 HD
ATOM     19  H   UNL     1      52.588  48.490  21.170  1.00  0.00    +0.344 HD
ATOM     20  H   UNL     1      53.225  48.630  19.631  1.00  0.00    +0.344 HD
ENDBRANCH   1  17
TORSDOF 7
ENDMDL
