MODEL 1
REMARK VINA RESULT:    -7.094      0.000      0.000
REMARK INTER + INTRA:         -10.486
REMARK INTER:                  -9.375
REMARK INTRA:                  -1.111
REMARK UNBOUND:                -1.111
REMARK SMILES Nc1ccccc1OCCNC(=O)[C@H]1CCCOC1
REMARK SMILES IDX 8 1 7 2 4 3 5 4 3 5 6 6 2 7 1 8 9 11 10 12 11 13 12 14 13 15
REMARK SMILES IDX 14 17 15 18 19 19 16 20 18 21 17 22
REMARK H PARENT 1 9 1 10 11 16
ROOT
ATOM      1  O   UNL     1      51.019  54.820  20.555  1.00  0.00    -0.490 OA
ENDROOT
BRANCH   1   2
ATOM      2  C   UNL     1      50.129  55.843  20.781  1.00  0.00    +0.142 A 
ATOM      3  C   UNL     1      48.151  57.802  21.093  1.00  0.00    +0.002 A 
ATOM      4  C   UNL     1      49.348  57.900  21.797  1.00  0.00    +0.004 A 
ATOM      5  C   UNL     1      47.940  56.731  20.225  1.00  0.00    +0.029 A 
ATOM      6  C   UNL     1      50.335  56.921  21.646  1.00  0.00    +0.048 A 
ATOM      7  C   UNL     1      48.937  55.770  20.029  1.00  0.00    +0.074 A 
BRANCH   7   8
ATOM      8  N   UNL     1      48.657  54.631  19.247  1.00  0.00    -0.396 N 
ATOM      9  H   UNL     1      47.743  54.230  19.427  1.00  0.00    +0.156 HD
ATOM     10  H   UNL     1      48.816  54.832  18.260  1.00  0.00    +0.156 HD
ENDBRANCH   7   8
ENDBRANCH   1   2
BRANCH   1  11
ATOM     11  C   UNL     1      51.703  54.240  21.667  1.00  0.00    +0.251 C 
BRANCH  11  12
ATOM     12  C   UNL     1      51.112  52.874  22.034  1.00  0.00    +0.157 C 
BRANCH  12  13
ATOM     13  N   UNL     1      50.822  52.040  20.882  1.00  0.00    -0.352 N 
ATOM     14  C   UNL     1      51.730  51.123  20.400  1.00  0.00    +0.225 C 
ATOM     15  O   UNL     1      52.780  50.850  20.974  1.00  0.00    -0.275 OA
ATOM     16  H   UNL     1      50.088  52.345  20.245  1.00  0.00    +0.163 HD
BRANCH  14  17
ATOM     17  C   UNL     1      51.315  50.424  19.112  1.00  0.00    +0.104 C 
ATOM     18  C   UNL     1      50.070  49.554  19.347  1.00  0.00    +0.018 C 
ATOM     19  C   UNL     1      51.097  51.455  18.002  1.00  0.00    +0.173 C 
ATOM     20  C   UNL     1      49.161  49.559  18.124  1.00  0.00    +0.029 C 
ATOM     21  O   UNL     1      49.761  51.960  18.081  1.00  0.00    -0.381 OA
ATOM     22  C   UNL     1      48.781  50.982  17.720  1.00  0.00    +0.160 C 
ENDBRANCH  14  17
ENDBRANCH  12  13
ENDBRANCH  11  12
ENDBRANCH   1  11
TORSDOF 6
ENDMDL
MODEL 2
REMARK VINA RESULT:    -7.059      1.895      5.961
REMARK INTER + INTRA:         -10.440
REMARK INTER:                  -9.427
REMARK INTRA:                  -1.014
REMARK UNBOUND:                -1.111
REMARK SMILES Nc1ccccc1OCCNC(=O)[C@H]1CCCOC1
REMARK SMILES IDX 8 1 7 2 4 3 5 4 3 5 6 6 2 7 1 8 9 11 10 12 11 13 12 14 13 15
REMARK SMILES IDX 14 17 15 18 19 19 16 20 18 21 17 22
REMARK H PARENT 1 9 1 10 11 16
ROOT
ATOM      1  O   UNL     1      50.869  50.203  18.961  1.00  0.00    -0.490 OA
ENDROOT
BRANCH   1   2
ATOM      2  C   UNL     1      49.565  50.007  18.570  1.00  0.00    +0.142 A 
ATOM      3  C   UNL     1      46.936  49.814  17.624  1.00  0.00    +0.002 A 
ATOM      4  C   UNL     1      47.442  48.843  18.484  1.00  0.00    +0.004 A 
ATOM      5  C   UNL     1      47.737  50.889  17.241  1.00  0.00    +0.029 A 
ATOM      6  C   UNL     1      48.756  48.935  18.953  1.00  0.00    +0.048 A 
ATOM      7  C   UNL     1      49.036  51.019  17.740  1.00  0.00    +0.074 A 
BRANCH   7   8
ATOM      8  N   UNL     1      49.870  52.042  17.244  1.00  0.00    -0.396 N 
ATOM      9  H   UNL     1      50.702  51.696  16.778  1.00  0.00    +0.156 HD
ATOM     10  H   UNL     1      49.332  52.690  16.670  1.00  0.00    +0.156 HD
ENDBRANCH   7   8
ENDBRANCH   1   2
BRANCH   1  11
ATOM     11  C   UNL     1      51.140  50.536  20.324  1.00  0.00    +0.251 C 
BRANCH  11  12
ATOM     12  C   UNL     1      52.257  51.580  20.431  1.00  0.00    +0.157 C 
BRANCH  12  13
ATOM     13  N   UNL     1      51.773  52.948  20.426  1.00  0.00    -0.352 N 
ATOM     14  C   UNL     1      51.959  53.782  19.347  1.00  0.00    +0.225 C 
ATOM     15  O   UNL     1      52.423  53.404  18.275  1.00  0.00    -0.275 OA
ATOM     16  H   UNL     1      51.576  53.387  21.324  1.00  0.00    +0.163 HD
BRANCH  14  17
ATOM     17  C   UNL     1      51.501  55.219  19.558  1.00  0.00    +0.104 C 
ATOM     18  C   UNL     1      50.179  55.255  20.343  1.00  0.00    +0.018 C 
ATOM     19  C   UNL     1      52.603  56.026  20.249  1.00  0.00    +0.173 C 
ATOM     20  C   UNL     1      50.131  56.457  21.277  1.00  0.00    +0.029 C 
ATOM     21  O   UNL     1      52.499  55.854  21.666  1.00  0.00    -0.381 OA
ATOM     22  C   UNL     1      51.337  56.485  22.212  1.00  0.00    +0.160 C 
ENDBRANCH  14  17
ENDBRANCH  12  13
ENDBRANCH  11  12
ENDBRANCH   1  11
TORSDOF 6
ENDMDL
MODEL 3
REMARK VINA RESULT:    -6.837      1.557      2.043
REMARK INTER + INTRA:         -10.147
REMARK INTER:                  -9.455
REMARK INTRA:                  -0.691
REMARK UNBOUND:                -1.111
REMARK SMILES Nc1ccccc1OCCNC(=O)[C@H]1CCCOC1
REMARK SMILES IDX 8 1 7 2 4 3 5 4 3 5 6 6 2 7 1 8 9 11 10 12 11 13 12 14 13 15
REMARK SMILES IDX 14 17 15 18 19 19 16 20 18 21 17 22
REMARK H PARENT 1 9 1 10 11 16
ROOT
ATOM      1  O   UNL     1      51.409  54.292  21.222  1.00  0.00    -0.490 OA
ENDROOT
BRANCH   1   2
ATOM      2  C   UNL     1      50.464  55.280  21.082  1.00  0.00    +0.142 A 
ATOM      3  C   UNL     1      48.680  57.435  20.952  1.00  0.00    +0.002 A 
ATOM      4  C   UNL     1      48.455  56.295  20.185  1.00  0.00    +0.004 A 
ATOM      5  C   UNL     1      49.790  57.500  21.792  1.00  0.00    +0.029 A 
ATOM      6  C   UNL     1      49.346  55.220  20.245  1.00  0.00    +0.048 A 
ATOM      7  C   UNL     1      50.664  56.414  21.897  1.00  0.00    +0.074 A 
BRANCH   7   8
ATOM      8  N   UNL     1      51.846  56.547  22.655  1.00  0.00    -0.396 N 
ATOM      9  H   UNL     1      52.024  57.496  22.965  1.00  0.00    +0.156 HD
ATOM     10  H   UNL     1      51.856  55.870  23.417  1.00  0.00    +0.156 HD
ENDBRANCH   7   8
ENDBRANCH   1   2
BRANCH   1  11
ATOM     11  C   UNL     1      51.026  53.044  21.799  1.00  0.00    +0.251 C 
BRANCH  11  12
ATOM     12  C   UNL     1      51.734  51.870  21.113  1.00  0.00    +0.157 C 
BRANCH  12  13
ATOM     13  N   UNL     1      51.006  51.341  19.975  1.00  0.00    -0.352 N 
ATOM     14  C   UNL     1      50.607  50.024  19.915  1.00  0.00    +0.225 C 
ATOM     15  O   UNL     1      50.718  49.243  20.855  1.00  0.00    -0.275 OA
ATOM     16  H   UNL     1      51.062  51.849  19.094  1.00  0.00    +0.163 HD
BRANCH  14  17
ATOM     17  C   UNL     1      49.967  49.606  18.598  1.00  0.00    +0.104 C 
ATOM     18  C   UNL     1      48.498  49.207  18.814  1.00  0.00    +0.018 C 
ATOM     19  C   UNL     1      50.114  50.725  17.564  1.00  0.00    +0.173 C 
ATOM     20  C   UNL     1      47.640  49.615  17.623  1.00  0.00    +0.029 C 
ATOM     21  O   UNL     1      49.038  51.655  17.716  1.00  0.00    -0.381 OA
ATOM     22  C   UNL     1      47.777  51.106  17.323  1.00  0.00    +0.160 C 
ENDBRANCH  14  17
ENDBRANCH  12  13
ENDBRANCH  11  12
ENDBRANCH   1  11
TORSDOF 6
ENDMDL
MODEL 4
REMARK VINA RESULT:    -6.654      1.783      6.124
REMARK INTER + INTRA:          -9.905
REMARK INTER:                  -8.769
REMARK INTRA:                  -1.136
REMARK UNBOUND:                -1.111
REMARK SMILES Nc1ccccc1OCCNC(=O)[C@H]1CCCOC1
REMARK SMILES IDX 8 1 7 2 4 3 5 4 3 5 6 6 2 7 1 8 9 11 10 12 11 13 12 14 13 15
REMARK SMILES IDX 14 17 15 18 19 19 16 20 18 21 17 22
REMARK H PARENT 1 9 1 10 11 16
ROOT
ATOM      1  O   UNL     1      51.927  51.523  19.909  1.00  0.00    -0.490 OA
ENDROOT
BRANCH   1   2
ATOM      2  C   UNL     1      50.855  50.792  19.457  1.00  0.00    +0.142 A 
ATOM      3  C   UNL     1      48.632  49.485  18.362  1.00  0.00    +0.002 A 
ATOM      4  C   UNL     1      49.372  48.878  19.373  1.00  0.00    +0.004 A 
ATOM      5  C   UNL     1      48.994  50.750  17.900  1.00  0.00    +0.029 A 
ATOM      6  C   UNL     1      50.484  49.526  19.917  1.00  0.00    +0.048 A 
ATOM      7  C   UNL     1      50.076  51.430  18.468  1.00  0.00    +0.074 A 
BRANCH   7   8
ATOM      8  N   UNL     1      50.501  52.650  17.903  1.00  0.00    -0.396 N 
ATOM      9  H   UNL     1      49.737  53.270  17.656  1.00  0.00    +0.156 HD
ATOM     10  H   UNL     1      51.197  53.094  18.502  1.00  0.00    +0.156 HD
ENDBRANCH   7   8
ENDBRANCH   1   2
BRANCH   1  11
ATOM     11  C   UNL     1      52.046  51.782  21.309  1.00  0.00    +0.251 C 
BRANCH  11  12
ATOM     12  C   UNL     1      50.898  52.663  21.813  1.00  0.00    +0.157 C 
BRANCH  12  13
ATOM     13  N   UNL     1      51.111  54.080  21.582  1.00  0.00    -0.352 N 
ATOM     14  C   UNL     1      50.313  54.806  20.726  1.00  0.00    +0.225 C 
ATOM     15  O   UNL     1      49.299  54.354  20.204  1.00  0.00    -0.275 OA
ATOM     16  H   UNL     1      52.027  54.467  21.802  1.00  0.00    +0.163 HD
BRANCH  14  17
ATOM     17  C   UNL     1      50.753  56.248  20.504  1.00  0.00    +0.104 C 
ATOM     18  C   UNL     1      50.973  56.958  21.850  1.00  0.00    +0.018 C 
ATOM     19  C   UNL     1      52.002  56.285  19.621  1.00  0.00    +0.173 C 
ATOM     20  C   UNL     1      52.132  57.943  21.763  1.00  0.00    +0.029 C 
ATOM     21  O   UNL     1      53.165  56.125  20.438  1.00  0.00    -0.381 OA
ATOM     22  C   UNL     1      53.408  57.259  21.276  1.00  0.00    +0.160 C 
ENDBRANCH  14  17
ENDBRANCH  12  13
ENDBRANCH  11  12
ENDBRANCH   1  11
TORSDOF 6
ENDMDL
MODEL 5
REMARK VINA RESULT:    -6.563      2.993      4.854
REMARK INTER + INTRA:          -9.784
REMARK INTER:                  -8.598
REMARK INTRA:                  -1.186
REMARK UNBOUND:                -1.111
REMARK SMILES Nc1ccccc1OCCNC(=O)[C@H]1CCCOC1
REMARK SMILES IDX 8 1 7 2 4 3 5 4 3 5 6 6 2 7 1 8 9 11 10 12 11 13 12 14 13 15
REMARK SMILES IDX 14 17 15 18 19 19 16 20 18 21 17 22
REMARK H PARENT 1 9 1 10 11 16
ROOT
ATOM      1  O   UNL     1      50.091  53.503  18.088  1.00  0.00    -0.490 OA
ENDROOT
BRANCH   1   2
ATOM      2  C   UNL     1      50.591  53.004  19.267  1.00  0.00    +0.142 A 
ATOM      3  C   UNL     1      51.774  51.853  21.530  1.00  0.00    +0.002 A 
ATOM      4  C   UNL     1      50.781  52.819  21.675  1.00  0.00    +0.004 A 
ATOM      5  C   UNL     1      52.173  51.453  20.256  1.00  0.00    +0.029 A 
ATOM      6  C   UNL     1      50.193  53.398  20.547  1.00  0.00    +0.048 A 
ATOM      7  C   UNL     1      51.560  51.990  19.119  1.00  0.00    +0.074 A 
BRANCH   7   8
ATOM      8  N   UNL     1      52.064  51.665  17.843  1.00  0.00    -0.396 N 
ATOM      9  H   UNL     1      52.897  51.087  17.871  1.00  0.00    +0.156 HD
ATOM     10  H   UNL     1      51.325  51.273  17.260  1.00  0.00    +0.156 HD
ENDBRANCH   7   8
ENDBRANCH   1   2
BRANCH   1  11
ATOM     11  C   UNL     1      48.678  53.510  17.883  1.00  0.00    +0.251 C 
BRANCH  11  12
ATOM     12  C   UNL     1      48.283  52.636  16.688  1.00  0.00    +0.157 C 
BRANCH  12  13
ATOM     13  N   UNL     1      47.884  51.292  17.060  1.00  0.00    -0.352 N 
ATOM     14  C   UNL     1      48.692  50.202  16.827  1.00  0.00    +0.225 C 
ATOM     15  O   UNL     1      49.844  50.294  16.414  1.00  0.00    -0.275 OA
ATOM     16  H   UNL     1      46.892  51.111  17.206  1.00  0.00    +0.163 HD
BRANCH  14  17
ATOM     17  C   UNL     1      48.068  48.854  17.165  1.00  0.00    +0.104 C 
ATOM     18  C   UNL     1      47.479  48.872  18.585  1.00  0.00    +0.018 C 
ATOM     19  C   UNL     1      47.022  48.481  16.112  1.00  0.00    +0.173 C 
ATOM     20  C   UNL     1      46.210  48.034  18.660  1.00  0.00    +0.029 C 
ATOM     21  O   UNL     1      45.768  49.075  16.459  1.00  0.00    -0.381 OA
ATOM     22  C   UNL     1      45.183  48.484  17.623  1.00  0.00    +0.160 C 
ENDBRANCH  14  17
ENDBRANCH  12  13
ENDBRANCH  11  12
ENDBRANCH   1  11
TORSDOF 6
ENDMDL
