MODEL 1
REMARK VINA RESULT:    -5.968      0.000      0.000
REMARK INTER + INTRA:          -8.314
REMARK INTER:                  -7.712
REMARK INTRA:                  -0.602
REMARK UNBOUND:                -0.602
REMARK SMILES CC(C)OCCNC(=O)NC1CCCCC1
REMARK SMILES IDX 5 1 4 2 2 3 1 4 3 5 6 6 7 7 8 8 9 9 10 10 11 13 12 14 16 15
REMARK SMILES IDX 13 16 15 17 14 18
REMARK H PARENT 7 11 10 12
ROOT
ATOM      1  C   UNL     1      49.832  50.388  17.913  1.00  0.00    +0.181 C 
ENDROOT
BRANCH   1   2
ATOM      2  O   UNL     1      49.656  51.090  16.676  1.00  0.00    -0.377 OA
BRANCH   2   3
ATOM      3  C   UNL     1      48.284  51.354  16.363  1.00  0.00    +0.112 C 
ATOM      4  C   UNL     1      48.036  52.828  16.667  1.00  0.00    +0.038 C 
ATOM      5  C   UNL     1      47.359  50.480  17.204  1.00  0.00    +0.038 C 
ENDBRANCH   2   3
ENDBRANCH   1   2
BRANCH   1   6
ATOM      6  C   UNL     1      50.859  51.136  18.759  1.00  0.00    +0.146 C 
BRANCH   6   7
ATOM      7  N   UNL     1      50.229  52.188  19.539  1.00  0.00    -0.336 N 
ATOM      8  C   UNL     1      50.565  53.497  19.306  1.00  0.00    +0.315 C 
ATOM      9  O   UNL     1      51.283  53.874  18.391  1.00  0.00    -0.249 OA
ATOM     10  N   UNL     1      49.980  54.323  20.232  1.00  0.00    -0.335 N 
ATOM     11  H   UNL     1      50.123  51.962  20.519  1.00  0.00    +0.165 HD
ATOM     12  H   UNL     1      49.116  53.962  20.612  1.00  0.00    +0.165 HD
BRANCH  10  13
ATOM     13  C   UNL     1      50.100  55.772  20.130  1.00  0.00    +0.083 C 
ATOM     14  C   UNL     1      50.231  56.375  21.539  1.00  0.00    +0.025 C 
ATOM     15  C   UNL     1      48.932  56.380  19.329  1.00  0.00    +0.025 C 
ATOM     16  C   UNL     1      49.742  57.817  21.587  1.00  0.00    +0.002 C 
ATOM     17  C   UNL     1      47.799  56.842  20.238  1.00  0.00    +0.002 C 
ATOM     18  C   UNL     1      48.261  57.922  21.219  1.00  0.00    +0.000 C 
ENDBRANCH  10  13
ENDBRANCH   6   7
ENDBRANCH   1   6
TORSDOF 5
ENDMDL
MODEL 2
REMARK VINA RESULT:    -5.851      1.571      2.737
REMARK INTER + INTRA:          -8.164
REMARK INTER:                  -7.672
REMARK INTRA:                  -0.491
REMARK UNBOUND:                -0.602
REMARK SMILES CC(C)OCCNC(=O)NC1CCCCC1
REMARK SMILES IDX 5 1 4 2 2 3 1 4 3 5 6 6 7 7 8 8 9 9 10 10 11 13 12 14 16 15
REMARK SMILES IDX 13 16 15 17 14 18
REMARK H PARENT 7 11 10 12
ROOT
ATOM      1  C   UNL     1      49.740  50.438  18.682  1.00  0.00    +0.181 C 
ENDROOT
BRANCH   1   2
ATOM      2  O   UNL     1      51.128  50.128  18.860  1.00  0.00    -0.377 OA
BRANCH   2   3
ATOM      3  C   UNL     1      51.496  49.938  20.230  1.00  0.00    +0.112 C 
ATOM      4  C   UNL     1      50.548  48.889  20.803  1.00  0.00    +0.038 C 
ATOM      5  C   UNL     1      51.373  51.242  21.010  1.00  0.00    +0.038 C 
ENDBRANCH   2   3
ENDBRANCH   1   2
BRANCH   1   6
ATOM      6  C   UNL     1      49.611  51.506  17.600  1.00  0.00    +0.146 C 
BRANCH   6   7
ATOM      7  N   UNL     1      48.999  52.715  18.126  1.00  0.00    -0.336 N 
ATOM      8  C   UNL     1      49.796  53.763  18.510  1.00  0.00    +0.315 C 
ATOM      9  O   UNL     1      51.005  53.814  18.334  1.00  0.00    -0.249 OA
ATOM     10  N   UNL     1      49.050  54.747  19.110  1.00  0.00    -0.335 N 
ATOM     11  H   UNL     1      48.222  52.542  18.749  1.00  0.00    +0.165 HD
ATOM     12  H   UNL     1      48.090  54.778  18.797  1.00  0.00    +0.165 HD
BRANCH  10  13
ATOM     13  C   UNL     1      49.656  56.012  19.509  1.00  0.00    +0.083 C 
ATOM     14  C   UNL     1      50.126  55.915  20.970  1.00  0.00    +0.025 C 
ATOM     15  C   UNL     1      48.698  57.195  19.269  1.00  0.00    +0.025 C 
ATOM     16  C   UNL     1      50.176  57.280  21.642  1.00  0.00    +0.002 C 
ATOM     17  C   UNL     1      47.892  57.536  20.517  1.00  0.00    +0.002 C 
ATOM     18  C   UNL     1      48.795  57.937  21.686  1.00  0.00    +0.000 C 
ENDBRANCH  10  13
ENDBRANCH   6   7
ENDBRANCH   1   6
TORSDOF 5
ENDMDL
MODEL 3
REMARK VINA RESULT:    -5.841      1.460      1.934
REMARK INTER + INTRA:          -8.151
REMARK INTER:                  -7.864
REMARK INTRA:                  -0.287
REMARK UNBOUND:                -0.602
REMARK SMILES CC(C)OCCNC(=O)NC1CCCCC1
REMARK SMILES IDX 5 1 4 2 2 3 1 4 3 5 6 6 7 7 8 8 9 9 10 10 11 13 12 14 16 15
REMARK SMILES IDX 13 16 15 17 14 18
REMARK H PARENT 7 11 10 12
ROOT
ATOM      1  C   UNL     1      49.746  49.739  18.425  1.00  0.00    +0.181 C 
ENDROOT
BRANCH   1   2
ATOM      2  O   UNL     1      48.324  49.911  18.375  1.00  0.00    -0.377 OA
BRANCH   2   3
ATOM      3  C   UNL     1      47.642  48.827  17.737  1.00  0.00    +0.112 C 
ATOM      4  C   UNL     1      46.662  48.257  18.757  1.00  0.00    +0.038 C 
ATOM      5  C   UNL     1      48.629  47.751  17.295  1.00  0.00    +0.038 C 
ENDBRANCH   2   3
ENDBRANCH   1   2
BRANCH   1   6
ATOM      6  C   UNL     1      50.413  51.026  17.950  1.00  0.00    +0.146 C 
BRANCH   6   7
ATOM      7  N   UNL     1      49.609  52.189  18.287  1.00  0.00    -0.336 N 
ATOM      8  C   UNL     1      50.229  53.371  18.603  1.00  0.00    +0.315 C 
ATOM      9  O   UNL     1      51.433  53.568  18.510  1.00  0.00    -0.249 OA
ATOM     10  N   UNL     1      49.315  54.301  19.029  1.00  0.00    -0.335 N 
ATOM     11  H   UNL     1      48.809  51.979  18.868  1.00  0.00    +0.165 HD
ATOM     12  H   UNL     1      48.390  54.168  18.646  1.00  0.00    +0.165 HD
BRANCH  10  13
ATOM     13  C   UNL     1      49.717  55.672  19.321  1.00  0.00    +0.083 C 
ATOM     14  C   UNL     1      50.125  55.781  20.800  1.00  0.00    +0.025 C 
ATOM     15  C   UNL     1      48.616  56.678  18.932  1.00  0.00    +0.025 C 
ATOM     16  C   UNL     1      49.951  57.196  21.335  1.00  0.00    +0.002 C 
ATOM     17  C   UNL     1      47.710  57.014  20.111  1.00  0.00    +0.002 C 
ATOM     18  C   UNL     1      48.491  57.649  21.264  1.00  0.00    +0.000 C 
ENDBRANCH  10  13
ENDBRANCH   6   7
ENDBRANCH   1   6
TORSDOF 5
ENDMDL
MODEL 4
REMARK VINA RESULT:    -5.834      1.990      2.604
REMARK INTER + INTRA:          -8.142
REMARK INTER:                  -7.919
REMARK INTRA:                  -0.223
REMARK UNBOUND:                -0.602
REMARK SMILES CC(C)OCCNC(=O)NC1CCCCC1
REMARK SMILES IDX 5 1 4 2 2 3 1 4 3 5 6 6 7 7 8 8 9 9 10 10 11 13 12 14 16 15
REMARK SMILES IDX 13 16 15 17 14 18
REMARK H PARENT 7 11 10 12
ROOT
ATOM      1  C   UNL     1      52.511  50.760  20.350  1.00  0.00    +0.181 C 
ENDROOT
BRANCH   1   2
ATOM      2  O   UNL     1      52.057  49.898  19.300  1.00  0.00    -0.377 OA
BRANCH   2   3
ATOM      3  C   UNL     1      50.796  49.280  19.578  1.00  0.00    +0.112 C 
ATOM      4  C   UNL     1      49.727  50.122  18.890  1.00  0.00    +0.038 C 
ATOM      5  C   UNL     1      50.539  49.225  21.080  1.00  0.00    +0.038 C 
ENDBRANCH   2   3
ENDBRANCH   1   2
BRANCH   1   6
ATOM      6  C   UNL     1      52.635  52.179  19.803  1.00  0.00    +0.146 C 
BRANCH   6   7
ATOM      7  N   UNL     1      51.748  53.091  20.505  1.00  0.00    -0.336 N 
ATOM      8  C   UNL     1      51.537  54.350  20.002  1.00  0.00    +0.315 C 
ATOM      9  O   UNL     1      51.952  54.742  18.921  1.00  0.00    -0.249 OA
ATOM     10  N   UNL     1      50.793  55.104  20.874  1.00  0.00    -0.335 N 
ATOM     11  H   UNL     1      51.846  53.064  21.511  1.00  0.00    +0.165 HD
ATOM     12  H   UNL     1      50.178  54.559  21.462  1.00  0.00    +0.165 HD
BRANCH  10  13
ATOM     13  C   UNL     1      50.346  56.445  20.517  1.00  0.00    +0.083 C 
ATOM     14  C   UNL     1      49.852  57.173  21.779  1.00  0.00    +0.025 C 
ATOM     15  C   UNL     1      49.285  56.406  19.398  1.00  0.00    +0.025 C 
ATOM     16  C   UNL     1      48.833  58.255  21.447  1.00  0.00    +0.002 C 
ATOM     17  C   UNL     1      47.868  56.412  19.958  1.00  0.00    +0.002 C 
ATOM     18  C   UNL     1      47.586  57.671  20.781  1.00  0.00    +0.000 C 
ENDBRANCH  10  13
ENDBRANCH   6   7
ENDBRANCH   1   6
TORSDOF 5
ENDMDL
MODEL 5
REMARK VINA RESULT:    -5.587      2.416      6.264
REMARK INTER + INTRA:          -7.822
REMARK INTER:                  -7.391
REMARK INTRA:                  -0.431
REMARK UNBOUND:                -0.602
REMARK SMILES CC(C)OCCNC(=O)NC1CCCCC1
REMARK SMILES IDX 5 1 4 2 2 3 1 4 3 5 6 6 7 7 8 8 9 9 10 10 11 13 12 14 16 15
REMARK SMILES IDX 13 16 15 17 14 18
REMARK H PARENT 7 11 10 12
ROOT
ATOM      1  C   UNL     1      50.672  57.485  21.038  1.00  0.00    +0.181 C 
ENDROOT
BRANCH   1   2
ATOM      2  O   UNL     1      49.451  57.334  21.773  1.00  0.00    -0.377 OA
BRANCH   2   3
ATOM      3  C   UNL     1      48.299  57.190  20.937  1.00  0.00    +0.112 C 
ATOM      4  C   UNL     1      48.649  56.157  19.871  1.00  0.00    +0.038 C 
ATOM      5  C   UNL     1      47.934  58.519  20.284  1.00  0.00    +0.038 C 
ENDBRANCH   2   3
ENDBRANCH   1   2
BRANCH   1   6
ATOM      6  C   UNL     1      51.802  56.824  21.822  1.00  0.00    +0.146 C 
BRANCH   6   7
ATOM      7  N   UNL     1      51.603  55.388  21.919  1.00  0.00    -0.336 N 
ATOM      8  C   UNL     1      51.895  54.590  20.842  1.00  0.00    +0.315 C 
ATOM      9  O   UNL     1      52.435  54.982  19.817  1.00  0.00    -0.249 OA
ATOM     10  N   UNL     1      51.507  53.295  21.076  1.00  0.00    -0.335 N 
ATOM     11  H   UNL     1      50.756  55.124  22.405  1.00  0.00    +0.165 HD
ATOM     12  H   UNL     1      51.503  53.041  22.054  1.00  0.00    +0.165 HD
BRANCH  10  13
ATOM     13  C   UNL     1      51.809  52.235  20.121  1.00  0.00    +0.083 C 
ATOM     14  C   UNL     1      50.630  52.075  19.147  1.00  0.00    +0.025 C 
ATOM     15  C   UNL     1      52.174  50.920  20.836  1.00  0.00    +0.025 C 
ATOM     16  C   UNL     1      50.563  50.669  18.563  1.00  0.00    +0.002 C 
ATOM     17  C   UNL     1      50.964  50.008  21.003  1.00  0.00    +0.002 C 
ATOM     18  C   UNL     1      50.357  49.616  19.654  1.00  0.00    +0.000 C 
ENDBRANCH  10  13
ENDBRANCH   6   7
ENDBRANCH   1   6
TORSDOF 5
ENDMDL
