MODEL 1
REMARK VINA RESULT:    -6.796      0.000      0.000
REMARK INTER + INTRA:         -10.521
REMARK INTER:                  -9.378
REMARK INTRA:                  -1.142
REMARK UNBOUND:                -1.142
REMARK SMILES C=CCn1nnc(CO)c1CCC1CCCCC1
REMARK SMILES IDX 4 1 10 2 7 3 6 4 5 5 3 6 2 7 1 8 11 9 12 10 13 11 14 12
REMARK SMILES IDX 18 13 15 14 17 15 16 16 8 17 9 18
REMARK H PARENT 9 19
ROOT
ATOM      1  N   UNL     1      49.950  51.068  18.343  1.00  0.00    -0.245 N 
ATOM      2  C   UNL     1      49.666  49.813  18.826  1.00  0.00    +0.065 A 
ATOM      3  C   UNL     1      50.363  49.767  20.024  1.00  0.00    +0.111 A 
ATOM      4  N   UNL     1      50.984  50.972  20.232  1.00  0.00    -0.133 NA
ATOM      5  N   UNL     1      50.719  51.761  19.204  1.00  0.00    -0.066 NA
ENDROOT
BRANCH   1   6
ATOM      6  C   UNL     1      49.512  51.705  17.110  1.00  0.00    +0.173 C 
BRANCH   6   7
ATOM      7  C   UNL     1      48.392  52.682  17.339  1.00  0.00    -0.011 C 
ATOM      8  C   UNL     1      47.558  53.115  16.383  1.00  0.00    +0.006 C 
ENDBRANCH   6   7
ENDBRANCH   1   6
BRANCH   2   9
ATOM      9  C   UNL     1      48.818  48.797  18.136  1.00  0.00    +0.058 C 
BRANCH   9  10
ATOM     10  C   UNL     1      47.329  48.919  18.490  1.00  0.00    +0.010 C 
BRANCH  10  11
ATOM     11  C   UNL     1      46.443  49.536  17.381  1.00  0.00    -0.011 C 
ATOM     12  C   UNL     1      45.006  49.000  17.474  1.00  0.00    +0.003 C 
ATOM     13  C   UNL     1      47.028  49.316  15.968  1.00  0.00    +0.003 C 
ATOM     14  C   UNL     1      44.886  47.525  17.095  1.00  0.00    +0.000 C 
ATOM     15  C   UNL     1      46.240  48.323  15.110  1.00  0.00    +0.000 C 
ATOM     16  C   UNL     1      45.780  47.122  15.922  1.00  0.00    +0.000 C 
ENDBRANCH  10  11
ENDBRANCH   9  10
ENDBRANCH   2   9
BRANCH   3  17
ATOM     17  C   UNL     1      50.488  48.691  21.040  1.00  0.00    +0.216 C 
BRANCH  17  18
ATOM     18  O   UNL     1      51.540  47.770  20.750  1.00  0.00    -0.390 OA
ATOM     19  H   UNL     1      51.352  47.414  19.866  1.00  0.00    +0.211 HD
ENDBRANCH  17  18
ENDBRANCH   3  17
TORSDOF 7
ENDMDL
MODEL 2
REMARK VINA RESULT:    -6.503      2.677      3.646
REMARK INTER + INTRA:         -10.116
REMARK INTER:                  -9.397
REMARK INTRA:                  -0.719
REMARK UNBOUND:                -1.142
REMARK SMILES C=CCn1nnc(CO)c1CCC1CCCCC1
REMARK SMILES IDX 4 1 10 2 7 3 6 4 5 5 3 6 2 7 1 8 11 9 12 10 13 11 14 12
REMARK SMILES IDX 18 13 15 14 17 15 16 16 8 17 9 18
REMARK H PARENT 9 19
ROOT
ATOM      1  N   UNL     1      50.657  54.155  18.665  1.00  0.00    -0.245 N 
ATOM      2  C   UNL     1      50.527  52.799  18.483  1.00  0.00    +0.065 A 
ATOM      3  C   UNL     1      51.841  52.358  18.429  1.00  0.00    +0.111 A 
ATOM      4  N   UNL     1      52.684  53.422  18.620  1.00  0.00    -0.133 NA
ATOM      5  N   UNL     1      51.951  54.513  18.771  1.00  0.00    -0.066 NA
ENDROOT
BRANCH   1   6
ATOM      6  C   UNL     1      49.625  55.174  18.790  1.00  0.00    +0.173 C 
BRANCH   6   7
ATOM      7  C   UNL     1      49.392  55.580  20.219  1.00  0.00    -0.011 C 
ATOM      8  C   UNL     1      48.739  56.688  20.595  1.00  0.00    +0.006 C 
ENDBRANCH   6   7
ENDBRANCH   1   6
BRANCH   2   9
ATOM      9  C   UNL     1      49.233  52.068  18.354  1.00  0.00    +0.058 C 
BRANCH   9  10
ATOM     10  C   UNL     1      49.108  51.298  17.032  1.00  0.00    +0.010 C 
BRANCH  10  11
ATOM     11  C   UNL     1      49.133  49.757  17.169  1.00  0.00    -0.011 C 
ATOM     12  C   UNL     1      48.286  49.101  16.067  1.00  0.00    +0.003 C 
ATOM     13  C   UNL     1      48.685  49.282  18.570  1.00  0.00    +0.003 C 
ATOM     14  C   UNL     1      46.786  49.341  16.234  1.00  0.00    +0.000 C 
ATOM     15  C   UNL     1      47.319  48.591  18.592  1.00  0.00    +0.000 C 
ATOM     16  C   UNL     1      46.319  49.295  17.689  1.00  0.00    +0.000 C 
ENDBRANCH  10  11
ENDBRANCH   9  10
ENDBRANCH   2   9
BRANCH   3  17
ATOM     17  C   UNL     1      52.406  50.997  18.242  1.00  0.00    +0.216 C 
BRANCH  17  18
ATOM     18  O   UNL     1      52.809  50.741  16.896  1.00  0.00    -0.390 OA
ATOM     19  H   UNL     1      53.556  51.336  16.719  1.00  0.00    +0.211 HD
ENDBRANCH  17  18
ENDBRANCH   3  17
TORSDOF 7
ENDMDL
MODEL 3
REMARK VINA RESULT:    -6.300      2.708      3.707
REMARK INTER + INTRA:          -9.836
REMARK INTER:                  -9.129
REMARK INTRA:                  -0.708
REMARK UNBOUND:                -1.142
REMARK SMILES C=CCn1nnc(CO)c1CCC1CCCCC1
REMARK SMILES IDX 4 1 10 2 7 3 6 4 5 5 3 6 2 7 1 8 11 9 12 10 13 11 14 12
REMARK SMILES IDX 18 13 15 14 17 15 16 16 8 17 9 18
REMARK H PARENT 9 19
ROOT
ATOM      1  N   UNL     1      51.192  52.842  20.762  1.00  0.00    -0.245 N 
ATOM      2  C   UNL     1      51.384  51.946  19.737  1.00  0.00    +0.065 A 
ATOM      3  C   UNL     1      52.186  50.971  20.312  1.00  0.00    +0.111 A 
ATOM      4  N   UNL     1      52.401  51.282  21.630  1.00  0.00    -0.133 NA
ATOM      5  N   UNL     1      51.784  52.421  21.896  1.00  0.00    -0.066 NA
ENDROOT
BRANCH   1   6
ATOM      6  C   UNL     1      50.439  54.087  20.772  1.00  0.00    +0.173 C 
BRANCH   6   7
ATOM      7  C   UNL     1      51.310  55.279  21.059  1.00  0.00    -0.011 C 
ATOM      8  C   UNL     1      51.239  56.017  22.175  1.00  0.00    +0.006 C 
ENDBRANCH   6   7
ENDBRANCH   1   6
BRANCH   2   9
ATOM      9  C   UNL     1      50.842  52.091  18.355  1.00  0.00    +0.058 C 
BRANCH   9  10
ATOM     10  C   UNL     1      49.437  51.493  18.196  1.00  0.00    +0.010 C 
BRANCH  10  11
ATOM     11  C   UNL     1      49.406  50.002  17.782  1.00  0.00    -0.011 C 
ATOM     12  C   UNL     1      48.765  49.839  16.394  1.00  0.00    +0.003 C 
ATOM     13  C   UNL     1      48.697  49.114  18.829  1.00  0.00    +0.003 C 
ATOM     14  C   UNL     1      47.265  50.131  16.383  1.00  0.00    +0.000 C 
ATOM     15  C   UNL     1      47.338  48.573  18.378  1.00  0.00    +0.000 C 
ATOM     16  C   UNL     1      46.536  49.626  17.628  1.00  0.00    +0.000 C 
ENDBRANCH  10  11
ENDBRANCH   9  10
ENDBRANCH   2   9
BRANCH   3  17
ATOM     17  C   UNL     1      52.763  49.724  19.747  1.00  0.00    +0.216 C 
BRANCH  17  18
ATOM     18  O   UNL     1      52.017  48.557  20.095  1.00  0.00    -0.390 OA
ATOM     19  H   UNL     1      51.116  48.861  20.290  1.00  0.00    +0.211 HD
ENDBRANCH  17  18
ENDBRANCH   3  17
TORSDOF 7
ENDMDL
MODEL 4
REMARK VINA RESULT:    -6.233      3.793      6.577
REMARK INTER + INTRA:          -9.743
REMARK INTER:                  -8.975
REMARK INTRA:                  -0.769
REMARK UNBOUND:                -1.142
REMARK SMILES C=CCn1nnc(CO)c1CCC1CCCCC1
REMARK SMILES IDX 4 1 10 2 7 3 6 4 5 5 3 6 2 7 1 8 11 9 12 10 13 11 14 12
REMARK SMILES IDX 18 13 15 14 17 15 16 16 8 17 9 18
REMARK H PARENT 9 19
ROOT
ATOM      1  N   UNL     1      49.830  51.206  18.314  1.00  0.00    -0.245 N 
ATOM      2  C   UNL     1      50.441  52.091  19.170  1.00  0.00    +0.065 A 
ATOM      3  C   UNL     1      50.855  51.285  20.220  1.00  0.00    +0.111 A 
ATOM      4  N   UNL     1      50.531  49.982  19.944  1.00  0.00    -0.133 NA
ATOM      5  N   UNL     1      49.912  49.944  18.775  1.00  0.00    -0.066 NA
ENDROOT
BRANCH   1   6
ATOM      6  C   UNL     1      49.185  51.455  17.033  1.00  0.00    +0.173 C 
BRANCH   6   7
ATOM      7  C   UNL     1      47.897  52.217  17.181  1.00  0.00    -0.011 C 
ATOM      8  C   UNL     1      47.561  53.286  16.446  1.00  0.00    +0.006 C 
ENDBRANCH   6   7
ENDBRANCH   1   6
BRANCH   2   9
ATOM      9  C   UNL     1      50.554  53.562  18.950  1.00  0.00    +0.058 C 
BRANCH   9  10
ATOM     10  C   UNL     1      49.617  54.378  19.853  1.00  0.00    +0.010 C 
BRANCH  10  11
ATOM     11  C   UNL     1      49.670  55.909  19.634  1.00  0.00    -0.011 C 
ATOM     12  C   UNL     1      51.121  56.414  19.683  1.00  0.00    +0.003 C 
ATOM     13  C   UNL     1      48.781  56.679  20.635  1.00  0.00    +0.003 C 
ATOM     14  C   UNL     1      51.740  56.341  21.079  1.00  0.00    +0.000 C 
ATOM     15  C   UNL     1      49.560  57.479  21.683  1.00  0.00    +0.000 C 
ATOM     16  C   UNL     1      50.763  56.704  22.197  1.00  0.00    +0.000 C 
ENDBRANCH  10  11
ENDBRANCH   9  10
ENDBRANCH   2   9
BRANCH   3  17
ATOM     17  C   UNL     1      51.574  51.613  21.478  1.00  0.00    +0.216 C 
BRANCH  17  18
ATOM     18  O   UNL     1      50.742  52.258  22.442  1.00  0.00    -0.390 OA
ATOM     19  H   UNL     1      50.551  51.593  23.124  1.00  0.00    +0.211 HD
ENDBRANCH  17  18
ENDBRANCH   3  17
TORSDOF 7
ENDMDL
MODEL 5
REMARK VINA RESULT:    -6.181      3.877      6.883
REMARK INTER + INTRA:          -9.672
REMARK INTER:                  -9.218
REMARK INTRA:                  -0.454
REMARK UNBOUND:                -1.142
REMARK SMILES C=CCn1nnc(CO)c1CCC1CCCCC1
REMARK SMILES IDX 4 1 10 2 7 3 6 4 5 5 3 6 2 7 1 8 11 9 12 10 13 11 14 12
REMARK SMILES IDX 18 13 15 14 17 15 16 16 8 17 9 18
REMARK H PARENT 9 19
ROOT
ATOM      1  N   UNL     1      48.868  51.564  17.548  1.00  0.00    -0.245 N 
ATOM      2  C   UNL     1      49.604  52.642  17.979  1.00  0.00    +0.065 A 
ATOM      3  C   UNL     1      50.876  52.115  18.139  1.00  0.00    +0.111 A 
ATOM      4  N   UNL     1      50.870  50.796  17.767  1.00  0.00    -0.133 NA
ATOM      5  N   UNL     1      49.641  50.472  17.401  1.00  0.00    -0.066 NA
ENDROOT
BRANCH   1   6
ATOM      6  C   UNL     1      47.453  51.484  17.215  1.00  0.00    +0.173 C 
BRANCH   6   7
ATOM      7  C   UNL     1      47.014  50.077  16.918  1.00  0.00    -0.011 C 
ATOM      8  C   UNL     1      46.230  49.343  17.719  1.00  0.00    +0.006 C 
ENDBRANCH   6   7
ENDBRANCH   1   6
BRANCH   2   9
ATOM      9  C   UNL     1      49.064  54.012  18.217  1.00  0.00    +0.058 C 
BRANCH   9  10
ATOM     10  C   UNL     1      49.402  54.555  19.614  1.00  0.00    +0.010 C 
BRANCH  10  11
ATOM     11  C   UNL     1      49.783  56.054  19.656  1.00  0.00    -0.011 C 
ATOM     12  C   UNL     1      51.311  56.225  19.630  1.00  0.00    +0.003 C 
ATOM     13  C   UNL     1      49.163  56.787  20.866  1.00  0.00    +0.003 C 
ATOM     14  C   UNL     1      51.993  55.759  20.916  1.00  0.00    +0.000 C 
ATOM     15  C   UNL     1      50.174  57.190  21.943  1.00  0.00    +0.000 C 
ATOM     16  C   UNL     1      51.205  56.097  22.181  1.00  0.00    +0.000 C 
ENDBRANCH  10  11
ENDBRANCH   9  10
ENDBRANCH   2   9
BRANCH   3  17
ATOM     17  C   UNL     1      52.144  52.746  18.588  1.00  0.00    +0.216 C 
BRANCH  17  18
ATOM     18  O   UNL     1      53.167  52.711  17.592  1.00  0.00    -0.390 OA
ATOM     19  H   UNL     1      54.012  52.752  18.070  1.00  0.00    +0.211 HD
ENDBRANCH  17  18
ENDBRANCH   3  17
TORSDOF 7
ENDMDL
