MODEL 1
REMARK VINA RESULT:    -7.811      0.000      0.000
REMARK INTER + INTRA:         -10.694
REMARK INTER:                 -10.094
REMARK INTRA:                  -0.600
REMARK UNBOUND:                -0.600
REMARK SMILES CC(C)c1ccc2[nH]c(C(=O)[O-])c(CNS(C)(=O)=O)c2c1
REMARK SMILES IDX 14 1 13 2 4 3 5 4 21 5 6 6 20 7 7 8 8 9 9 10 2 12 1 13 3 14
REMARK SMILES IDX 10 15 11 16 12 17 15 18 16 20 18 21 19 22 17 23
REMARK H PARENT 8 11 15 19
ROOT
ATOM      1  C   UNL     1      49.517  52.185  18.397  1.00  0.00    +0.137 C 
ENDROOT
BRANCH   1   2
ATOM      2  C   UNL     1      50.358  52.670  19.546  1.00  0.00    +0.002 A 
ATOM      3  C   UNL     1      49.900  56.248  20.956  1.00  0.00    -0.045 A 
ATOM      4  C   UNL     1      50.900  56.132  21.927  1.00  0.00    +0.006 A 
ATOM      5  C   UNL     1      49.636  55.148  20.113  1.00  0.00    +0.014 A 
ATOM      6  C   UNL     1      51.637  54.954  22.081  1.00  0.00    +0.027 A 
ATOM      7  C   UNL     1      50.368  53.943  20.232  1.00  0.00    +0.005 A 
ATOM      8  C   UNL     1      51.348  53.884  21.228  1.00  0.00    +0.046 A 
ATOM      9  N   UNL     1      51.901  52.632  21.173  1.00  0.00    -0.353 N 
ATOM     10  C   UNL     1      51.294  51.891  20.204  1.00  0.00    +0.067 A 
ATOM     11  H   UNL     1      52.628  52.252  21.768  1.00  0.00    +0.167 HD
BRANCH   3  12
ATOM     12  C   UNL     1      49.093  57.524  20.788  1.00  0.00    +0.013 C 
ATOM     13  C   UNL     1      49.027  58.324  22.091  1.00  0.00    +0.012 C 
ATOM     14  C   UNL     1      47.688  57.233  20.253  1.00  0.00    +0.012 C 
ENDBRANCH   3  12
BRANCH  10  15
ATOM     15  C   UNL     1      51.668  50.397  19.974  1.00  0.00    +0.088 C 
ATOM     16  O   UNL     1      52.614  50.160  19.172  1.00  0.00    -0.543 OA
ATOM     17  O   UNL     1      50.955  49.573  20.620  1.00  0.00    -0.543 OA
ENDBRANCH  10  15
ENDBRANCH   1   2
BRANCH   1  18
ATOM     18  N   UNL     1      50.382  51.556  17.388  1.00  0.00    -0.211 NA
ATOM     19  H   UNL     1      51.320  51.361  17.736  1.00  0.00    +0.141 HD
BRANCH  18  20
ATOM     20  S   UNL     1      49.751  50.322  16.471  1.00  0.00    +0.209 S 
ATOM     21  O   UNL     1      49.366  49.231  17.335  1.00  0.00    -0.213 OA
ATOM     22  O   UNL     1      50.685  50.112  15.384  1.00  0.00    -0.213 OA
ATOM     23  C   UNL     1      48.287  51.069  15.784  1.00  0.00    +0.176 C 
ENDBRANCH  18  20
ENDBRANCH   1  18
TORSDOF 5
ENDMDL
MODEL 2
REMARK VINA RESULT:    -7.754      1.265      1.577
REMARK INTER + INTRA:         -10.620
REMARK INTER:                  -9.915
REMARK INTRA:                  -0.706
REMARK UNBOUND:                -0.600
REMARK SMILES CC(C)c1ccc2[nH]c(C(=O)[O-])c(CNS(C)(=O)=O)c2c1
REMARK SMILES IDX 14 1 13 2 4 3 5 4 21 5 6 6 20 7 7 8 8 9 9 10 2 12 1 13 3 14
REMARK SMILES IDX 10 15 11 16 12 17 15 18 16 20 18 21 19 22 17 23
REMARK H PARENT 8 11 15 19
ROOT
ATOM      1  C   UNL     1      50.150  51.710  18.147  1.00  0.00    +0.137 C 
ENDROOT
BRANCH   1   2
ATOM      2  C   UNL     1      50.777  52.159  19.439  1.00  0.00    +0.002 A 
ATOM      3  C   UNL     1      50.075  55.695  20.852  1.00  0.00    -0.045 A 
ATOM      4  C   UNL     1      50.890  55.547  21.978  1.00  0.00    +0.006 A 
ATOM      5  C   UNL     1      49.963  54.622  19.943  1.00  0.00    +0.014 A 
ATOM      6  C   UNL     1      51.592  54.363  22.223  1.00  0.00    +0.027 A 
ATOM      7  C   UNL     1      50.665  53.411  20.153  1.00  0.00    +0.005 A 
ATOM      8  C   UNL     1      51.457  53.320  21.302  1.00  0.00    +0.046 A 
ATOM      9  N   UNL     1      52.013  52.067  21.308  1.00  0.00    -0.353 N 
ATOM     10  C   UNL     1      51.586  51.357  20.226  1.00  0.00    +0.067 A 
ATOM     11  H   UNL     1      52.626  51.667  22.009  1.00  0.00    +0.167 HD
BRANCH   3  12
ATOM     12  C   UNL     1      49.308  56.978  20.583  1.00  0.00    +0.013 C 
ATOM     13  C   UNL     1      49.329  57.911  21.796  1.00  0.00    +0.012 C 
ATOM     14  C   UNL     1      47.871  56.692  20.140  1.00  0.00    +0.012 C 
ENDBRANCH   3  12
BRANCH  10  15
ATOM     15  C   UNL     1      51.996  49.869  20.021  1.00  0.00    +0.088 C 
ATOM     16  O   UNL     1      51.067  49.013  20.030  1.00  0.00    -0.543 OA
ATOM     17  O   UNL     1      53.241  49.683  19.883  1.00  0.00    -0.543 OA
ENDBRANCH  10  15
ENDBRANCH   1   2
BRANCH   1  18
ATOM     18  N   UNL     1      49.139  50.679  18.425  1.00  0.00    -0.211 NA
ATOM     19  H   UNL     1      48.457  50.971  19.123  1.00  0.00    +0.141 HD
BRANCH  18  20
ATOM     20  S   UNL     1      48.461  49.876  17.136  1.00  0.00    +0.209 S 
ATOM     21  O   UNL     1      49.274  50.085  15.961  1.00  0.00    -0.213 OA
ATOM     22  O   UNL     1      47.057  50.230  17.139  1.00  0.00    -0.213 OA
ATOM     23  C   UNL     1      48.587  48.173  17.640  1.00  0.00    +0.176 C 
ENDBRANCH  18  20
ENDBRANCH   1  18
TORSDOF 5
ENDMDL
MODEL 3
REMARK VINA RESULT:    -7.528      3.486      6.488
REMARK INTER + INTRA:         -10.329
REMARK INTER:                  -9.656
REMARK INTRA:                  -0.673
REMARK UNBOUND:                -0.600
REMARK SMILES CC(C)c1ccc2[nH]c(C(=O)[O-])c(CNS(C)(=O)=O)c2c1
REMARK SMILES IDX 14 1 13 2 4 3 5 4 21 5 6 6 20 7 7 8 8 9 9 10 2 12 1 13 3 14
REMARK SMILES IDX 10 15 11 16 12 17 15 18 16 20 18 21 19 22 17 23
REMARK H PARENT 8 11 15 19
ROOT
ATOM      1  C   UNL     1      49.432  53.360  17.985  1.00  0.00    +0.137 C 
ENDROOT
BRANCH   1   2
ATOM      2  C   UNL     1      49.728  51.895  18.151  1.00  0.00    +0.002 A 
ATOM      3  C   UNL     1      46.982  49.241  17.510  1.00  0.00    -0.045 A 
ATOM      4  C   UNL     1      47.790  48.143  17.822  1.00  0.00    +0.006 A 
ATOM      5  C   UNL     1      47.533  50.537  17.584  1.00  0.00    +0.014 A 
ATOM      6  C   UNL     1      49.126  48.301  18.200  1.00  0.00    +0.027 A 
ATOM      7  C   UNL     1      48.879  50.738  17.971  1.00  0.00    +0.005 A 
ATOM      8  C   UNL     1      49.639  49.601  18.261  1.00  0.00    +0.046 A 
ATOM      9  N   UNL     1      50.900  50.032  18.584  1.00  0.00    -0.353 N 
ATOM     10  C   UNL     1      50.972  51.389  18.485  1.00  0.00    +0.067 A 
ATOM     11  H   UNL     1      51.702  49.464  18.828  1.00  0.00    +0.167 HD
BRANCH   3  12
ATOM     12  C   UNL     1      45.530  49.073  17.095  1.00  0.00    +0.013 C 
ATOM     13  C   UNL     1      44.752  48.221  18.101  1.00  0.00    +0.012 C 
ATOM     14  C   UNL     1      45.414  48.494  15.683  1.00  0.00    +0.012 C 
ENDBRANCH   3  12
BRANCH  10  15
ATOM     15  C   UNL     1      52.313  52.147  18.716  1.00  0.00    +0.088 C 
ATOM     16  O   UNL     1      53.058  52.313  17.710  1.00  0.00    -0.543 OA
ATOM     17  O   UNL     1      52.515  52.502  19.915  1.00  0.00    -0.543 OA
ENDBRANCH  10  15
ENDBRANCH   1   2
BRANCH   1  18
ATOM     18  N   UNL     1      49.735  54.067  19.239  1.00  0.00    -0.211 NA
ATOM     19  H   UNL     1      50.303  53.513  19.878  1.00  0.00    +0.141 HD
BRANCH  18  20
ATOM     20  S   UNL     1      50.205  55.659  19.150  1.00  0.00    +0.209 S 
ATOM     21  O   UNL     1      49.252  56.396  18.354  1.00  0.00    -0.213 OA
ATOM     22  O   UNL     1      51.610  55.641  18.797  1.00  0.00    -0.213 OA
ATOM     23  C   UNL     1      50.085  56.187  20.847  1.00  0.00    +0.176 C 
ENDBRANCH  18  20
ENDBRANCH   1  18
TORSDOF 5
ENDMDL
MODEL 4
REMARK VINA RESULT:    -7.359      3.138      6.945
REMARK INTER + INTRA:         -10.110
REMARK INTER:                  -9.432
REMARK INTRA:                  -0.677
REMARK UNBOUND:                -0.600
REMARK SMILES CC(C)c1ccc2[nH]c(C(=O)[O-])c(CNS(C)(=O)=O)c2c1
REMARK SMILES IDX 14 1 13 2 4 3 5 4 21 5 6 6 20 7 7 8 8 9 9 10 2 12 1 13 3 14
REMARK SMILES IDX 10 15 11 16 12 17 15 18 16 20 18 21 19 22 17 23
REMARK H PARENT 8 11 15 19
ROOT
ATOM      1  C   UNL     1      50.449  50.367  19.685  1.00  0.00    +0.137 C 
ENDROOT
BRANCH   1   2
ATOM      2  C   UNL     1      50.076  50.242  18.234  1.00  0.00    +0.002 A 
ATOM      3  C   UNL     1      46.586  48.921  17.198  1.00  0.00    -0.045 A 
ATOM      4  C   UNL     1      46.819  49.008  15.821  1.00  0.00    +0.006 A 
ATOM      5  C   UNL     1      47.606  49.313  18.090  1.00  0.00    +0.014 A 
ATOM      6  C   UNL     1      48.035  49.476  15.313  1.00  0.00    +0.027 A 
ATOM      7  C   UNL     1      48.853  49.783  17.613  1.00  0.00    +0.005 A 
ATOM      8  C   UNL     1      49.023  49.857  16.227  1.00  0.00    +0.046 A 
ATOM      9  N   UNL     1      50.280  50.355  16.003  1.00  0.00    -0.353 N 
ATOM     10  C   UNL     1      50.898  50.623  17.187  1.00  0.00    +0.067 A 
ATOM     11  H   UNL     1      50.716  50.551  15.109  1.00  0.00    +0.167 HD
BRANCH   3  12
ATOM     12  C   UNL     1      45.266  48.417  17.754  1.00  0.00    +0.013 C 
ATOM     13  C   UNL     1      45.475  47.518  18.975  1.00  0.00    +0.012 C 
ATOM     14  C   UNL     1      44.443  47.699  16.682  1.00  0.00    +0.012 C 
ENDBRANCH   3  12
BRANCH  10  15
ATOM     15  C   UNL     1      52.311  51.277  17.232  1.00  0.00    +0.088 C 
ATOM     16  O   UNL     1      53.249  50.654  16.661  1.00  0.00    -0.543 OA
ATOM     17  O   UNL     1      52.360  52.374  17.864  1.00  0.00    -0.543 OA
ENDBRANCH  10  15
ENDBRANCH   1   2
BRANCH   1  18
ATOM     18  N   UNL     1      50.469  51.787  20.066  1.00  0.00    -0.211 NA
ATOM     19  H   UNL     1      49.548  52.221  20.025  1.00  0.00    +0.141 HD
BRANCH  18  20
ATOM     20  S   UNL     1      51.345  52.227  21.409  1.00  0.00    +0.209 S 
ATOM     21  O   UNL     1      52.461  51.325  21.570  1.00  0.00    -0.213 OA
ATOM     22  O   UNL     1      50.380  52.410  22.474  1.00  0.00    -0.213 OA
ATOM     23  C   UNL     1      51.955  53.838  20.954  1.00  0.00    +0.176 C 
ENDBRANCH  18  20
ENDBRANCH   1  18
TORSDOF 5
ENDMDL
MODEL 5
REMARK VINA RESULT:    -7.207      2.111      4.607
REMARK INTER + INTRA:          -9.914
REMARK INTER:                  -9.053
REMARK INTRA:                  -0.860
REMARK UNBOUND:                -0.600
REMARK SMILES CC(C)c1ccc2[nH]c(C(=O)[O-])c(CNS(C)(=O)=O)c2c1
REMARK SMILES IDX 14 1 13 2 4 3 5 4 21 5 6 6 20 7 7 8 8 9 9 10 2 12 1 13 3 14
REMARK SMILES IDX 10 15 11 16 12 17 15 18 16 20 18 21 19 22 17 23
REMARK H PARENT 8 11 15 19
ROOT
ATOM      1  C   UNL     1      49.935  49.657  19.036  1.00  0.00    +0.137 C 
ENDROOT
BRANCH   1   2
ATOM      2  C   UNL     1      49.202  50.501  18.030  1.00  0.00    +0.002 A 
ATOM      3  C   UNL     1      48.984  54.343  18.459  1.00  0.00    -0.045 A 
ATOM      4  C   UNL     1      48.220  54.558  17.308  1.00  0.00    +0.006 A 
ATOM      5  C   UNL     1      49.369  53.027  18.788  1.00  0.00    +0.014 A 
ATOM      6  C   UNL     1      47.834  53.500  16.478  1.00  0.00    +0.027 A 
ATOM      7  C   UNL     1      48.990  51.931  17.978  1.00  0.00    +0.005 A 
ATOM      8  C   UNL     1      48.234  52.209  16.835  1.00  0.00    +0.046 A 
ATOM      9  N   UNL     1      48.008  51.014  16.202  1.00  0.00    -0.353 N 
ATOM     10  C   UNL     1      48.611  49.999  16.883  1.00  0.00    +0.067 A 
ATOM     11  H   UNL     1      47.508  50.861  15.335  1.00  0.00    +0.167 HD
BRANCH   3  12
ATOM     12  C   UNL     1      49.409  55.489  19.361  1.00  0.00    +0.013 C 
ATOM     13  C   UNL     1      50.159  54.985  20.596  1.00  0.00    +0.012 C 
ATOM     14  C   UNL     1      48.216  56.359  19.763  1.00  0.00    +0.012 C 
ENDBRANCH   3  12
BRANCH  10  15
ATOM     15  C   UNL     1      48.588  48.538  16.345  1.00  0.00    +0.088 C 
ATOM     16  O   UNL     1      47.811  47.727  16.923  1.00  0.00    -0.543 OA
ATOM     17  O   UNL     1      49.378  48.323  15.380  1.00  0.00    -0.543 OA
ENDBRANCH  10  15
ENDBRANCH   1   2
BRANCH   1  18
ATOM     18  N   UNL     1      51.377  49.700  18.756  1.00  0.00    -0.211 NA
ATOM     19  H   UNL     1      51.585  49.830  17.767  1.00  0.00    +0.141 HD
BRANCH  18  20
ATOM     20  S   UNL     1      52.345  50.610  19.757  1.00  0.00    +0.209 S 
ATOM     21  O   UNL     1      52.646  51.869  19.117  1.00  0.00    -0.213 OA
ATOM     22  O   UNL     1      53.407  49.728  20.195  1.00  0.00    -0.213 OA
ATOM     23  C   UNL     1      51.279  50.902  21.153  1.00  0.00    +0.176 C 
ENDBRANCH  18  20
ENDBRANCH   1  18
TORSDOF 5
ENDMDL
