MODEL 1
REMARK VINA RESULT:    -6.233      0.000      0.000
REMARK INTER + INTRA:         -10.337
REMARK INTER:                  -9.512
REMARK INTRA:                  -0.825
REMARK UNBOUND:                -0.825
REMARK SMILES CCCN[C@@H](CC[NH+](C)[C@@H](C)C(C)(C)C)C(N)=O
REMARK SMILES IDX 6 1 5 2 4 3 3 5 2 6 1 7 16 8 18 9 17 10 7 13 8 14 9 15 10 17
REMARK SMILES IDX 11 18 12 19 13 20 14 21 15 22
REMARK H PARENT 4 4 17 11 17 12 8 16
ROOT
ATOM      1  C   UNL     1      49.953  49.915  18.822  1.00  0.00    +0.090 C 
ENDROOT
BRANCH   1   2
ATOM      2  C   UNL     1      50.940  50.164  19.977  1.00  0.00    +0.149 C 
BRANCH   2   3
ATOM      3  N   UNL     1      50.766  51.537  20.487  1.00  0.00    -0.306 NA
ATOM      4  H   UNL     1      50.991  52.197  19.731  1.00  0.00    +0.123 HD
BRANCH   3   5
ATOM      5  C   UNL     1      51.644  51.853  21.623  1.00  0.00    +0.081 C 
BRANCH   5   6
ATOM      6  C   UNL     1      51.659  53.336  21.998  1.00  0.00    +0.012 C 
ATOM      7  C   UNL     1      50.742  54.143  21.091  1.00  0.00    +0.005 C 
ENDBRANCH   5   6
ENDBRANCH   3   5
ENDBRANCH   2   3
BRANCH   2   8
ATOM      8  C   UNL     1      52.376  49.971  19.461  1.00  0.00    +0.234 C 
ATOM      9  O   UNL     1      52.867  50.707  18.609  1.00  0.00    -0.274 OA
ATOM     10  N   UNL     1      53.051  48.890  19.938  1.00  0.00    -0.368 N 
ATOM     11  H   UNL     1      52.831  48.501  20.847  1.00  0.00    +0.159 HD
ATOM     12  H   UNL     1      54.029  48.834  19.670  1.00  0.00    +0.159 HD
ENDBRANCH   2   8
ENDBRANCH   1   2
BRANCH   1  13
ATOM     13  C   UNL     1      49.418  51.207  18.188  1.00  0.00    +0.264 C 
BRANCH  13  14
ATOM     14  N   UNL     1      48.654  50.893  16.890  1.00  0.00    -0.335 N 
ATOM     15  C   UNL     1      47.885  52.091  16.404  1.00  0.00    +0.332 C 
ATOM     16  H   UNL     1      49.388  50.711  16.197  1.00  0.00    +0.348 HD
BRANCH  14  17
ATOM     17  C   UNL     1      47.864  49.570  17.005  1.00  0.00    +0.186 C 
ATOM     18  C   UNL     1      46.378  49.854  17.250  1.00  0.00    +0.076 C 
BRANCH  17  19
ATOM     19  C   UNL     1      48.156  48.535  15.853  1.00  0.00    +0.014 C 
ATOM     20  C   UNL     1      46.959  48.279  14.916  1.00  0.00    +0.017 C 
ATOM     21  C   UNL     1      49.381  48.933  15.004  1.00  0.00    +0.017 C 
ATOM     22  C   UNL     1      48.498  47.171  16.511  1.00  0.00    +0.017 C 
ENDBRANCH  17  19
ENDBRANCH  14  17
ENDBRANCH  13  14
ENDBRANCH   1  13
TORSDOF 9
ENDMDL
MODEL 2
REMARK VINA RESULT:    -6.055      1.547      2.369
REMARK INTER + INTRA:         -10.065
REMARK INTER:                  -9.084
REMARK INTRA:                  -0.981
REMARK UNBOUND:                -0.825
REMARK SMILES CCCN[C@@H](CC[NH+](C)[C@@H](C)C(C)(C)C)C(N)=O
REMARK SMILES IDX 6 1 5 2 4 3 3 5 2 6 1 7 16 8 18 9 17 10 7 13 8 14 9 15 10 17
REMARK SMILES IDX 11 18 12 19 13 20 14 21 15 22
REMARK H PARENT 4 4 17 11 17 12 8 16
ROOT
ATOM      1  C   UNL     1      50.217  49.835  18.906  1.00  0.00    +0.090 C 
ENDROOT
BRANCH   1   2
ATOM      2  C   UNL     1      50.799  50.539  20.146  1.00  0.00    +0.149 C 
BRANCH   2   3
ATOM      3  N   UNL     1      50.640  51.999  20.003  1.00  0.00    -0.306 NA
ATOM      4  H   UNL     1      49.850  52.300  20.588  1.00  0.00    +0.123 HD
BRANCH   3   5
ATOM      5  C   UNL     1      50.354  52.422  18.624  1.00  0.00    +0.081 C 
BRANCH   5   6
ATOM      6  C   UNL     1      49.359  53.580  18.528  1.00  0.00    +0.012 C 
ATOM      7  C   UNL     1      49.331  54.390  19.816  1.00  0.00    +0.005 C 
ENDBRANCH   5   6
ENDBRANCH   3   5
ENDBRANCH   2   3
BRANCH   2   8
ATOM      8  C   UNL     1      52.289  50.181  20.272  1.00  0.00    +0.234 C 
ATOM      9  O   UNL     1      53.130  51.005  20.625  1.00  0.00    -0.274 OA
ATOM     10  N   UNL     1      52.644  48.923  19.893  1.00  0.00    -0.368 N 
ATOM     11  H   UNL     1      51.980  48.160  19.944  1.00  0.00    +0.159 HD
ATOM     12  H   UNL     1      53.609  48.667  20.080  1.00  0.00    +0.159 HD
ENDBRANCH   2   8
ENDBRANCH   1   2
BRANCH   1  13
ATOM     13  C   UNL     1      48.981  48.979  19.214  1.00  0.00    +0.264 C 
BRANCH  13  14
ATOM     14  N   UNL     1      47.997  49.009  18.031  1.00  0.00    -0.335 N 
ATOM     15  C   UNL     1      46.676  48.392  18.401  1.00  0.00    +0.332 C 
ATOM     16  H   UNL     1      47.822  50.007  17.867  1.00  0.00    +0.348 HD
BRANCH  14  17
ATOM     17  C   UNL     1      48.657  48.492  16.733  1.00  0.00    +0.186 C 
ATOM     18  C   UNL     1      48.266  47.031  16.479  1.00  0.00    +0.076 C 
BRANCH  17  19
ATOM     19  C   UNL     1      48.486  49.445  15.491  1.00  0.00    +0.014 C 
ATOM     20  C   UNL     1      47.443  48.963  14.464  1.00  0.00    +0.017 C 
ATOM     21  C   UNL     1      48.150  50.893  15.905  1.00  0.00    +0.017 C 
ATOM     22  C   UNL     1      49.845  49.503  14.741  1.00  0.00    +0.017 C 
ENDBRANCH  17  19
ENDBRANCH  14  17
ENDBRANCH  13  14
ENDBRANCH   1  13
TORSDOF 9
ENDMDL
MODEL 3
REMARK VINA RESULT:    -6.020      3.715      6.093
REMARK INTER + INTRA:         -10.012
REMARK INTER:                  -9.431
REMARK INTRA:                  -0.581
REMARK UNBOUND:                -0.825
REMARK SMILES CCCN[C@@H](CC[NH+](C)[C@@H](C)C(C)(C)C)C(N)=O
REMARK SMILES IDX 6 1 5 2 4 3 3 5 2 6 1 7 16 8 18 9 17 10 7 13 8 14 9 15 10 17
REMARK SMILES IDX 11 18 12 19 13 20 14 21 15 22
REMARK H PARENT 4 4 17 11 17 12 8 16
ROOT
ATOM      1  C   UNL     1      51.918  55.508  20.911  1.00  0.00    +0.090 C 
ENDROOT
BRANCH   1   2
ATOM      2  C   UNL     1      52.092  56.510  22.068  1.00  0.00    +0.149 C 
BRANCH   2   3
ATOM      3  N   UNL     1      50.824  57.230  22.291  1.00  0.00    -0.306 NA
ATOM      4  H   UNL     1      50.224  56.656  22.898  1.00  0.00    +0.123 HD
BRANCH   3   5
ATOM      5  C   UNL     1      50.077  57.491  21.052  1.00  0.00    +0.081 C 
BRANCH   5   6
ATOM      6  C   UNL     1      48.570  57.650  21.262  1.00  0.00    +0.012 C 
ATOM      7  C   UNL     1      47.784  56.931  20.176  1.00  0.00    +0.005 C 
ENDBRANCH   5   6
ENDBRANCH   3   5
ENDBRANCH   2   3
BRANCH   2   8
ATOM      8  C   UNL     1      53.207  57.505  21.706  1.00  0.00    +0.234 C 
ATOM      9  O   UNL     1      54.165  57.186  21.006  1.00  0.00    -0.274 OA
ATOM     10  N   UNL     1      53.122  58.741  22.271  1.00  0.00    -0.368 N 
ATOM     11  H   UNL     1      52.225  59.129  22.537  1.00  0.00    +0.159 HD
ATOM     12  H   UNL     1      53.804  59.418  21.942  1.00  0.00    +0.159 HD
ENDBRANCH   2   8
ENDBRANCH   1   2
BRANCH   1  13
ATOM     13  C   UNL     1      51.693  54.065  21.382  1.00  0.00    +0.264 C 
BRANCH  13  14
ATOM     14  N   UNL     1      52.094  53.071  20.279  1.00  0.00    -0.335 N 
ATOM     15  C   UNL     1      52.817  53.761  19.154  1.00  0.00    +0.332 C 
ATOM     16  H   UNL     1      52.774  52.447  20.729  1.00  0.00    +0.348 HD
BRANCH  14  17
ATOM     17  C   UNL     1      50.910  52.162  19.879  1.00  0.00    +0.186 C 
ATOM     18  C   UNL     1      49.892  52.947  19.044  1.00  0.00    +0.076 C 
BRANCH  17  19
ATOM     19  C   UNL     1      51.333  50.773  19.267  1.00  0.00    +0.014 C 
ATOM     20  C   UNL     1      51.456  50.771  17.730  1.00  0.00    +0.017 C 
ATOM     21  C   UNL     1      52.646  50.239  19.876  1.00  0.00    +0.017 C 
ATOM     22  C   UNL     1      50.229  49.739  19.619  1.00  0.00    +0.017 C 
ENDBRANCH  17  19
ENDBRANCH  14  17
ENDBRANCH  13  14
ENDBRANCH   1  13
TORSDOF 9
ENDMDL
MODEL 4
REMARK VINA RESULT:    -5.829      1.562      2.023
REMARK INTER + INTRA:          -9.721
REMARK INTER:                  -8.961
REMARK INTRA:                  -0.760
REMARK UNBOUND:                -0.825
REMARK SMILES CCCN[C@@H](CC[NH+](C)[C@@H](C)C(C)(C)C)C(N)=O
REMARK SMILES IDX 6 1 5 2 4 3 3 5 2 6 1 7 16 8 18 9 17 10 7 13 8 14 9 15 10 17
REMARK SMILES IDX 11 18 12 19 13 20 14 21 15 22
REMARK H PARENT 4 4 17 11 17 12 8 16
ROOT
ATOM      1  C   UNL     1      51.275  50.929  17.961  1.00  0.00    +0.090 C 
ENDROOT
BRANCH   1   2
ATOM      2  C   UNL     1      51.349  50.836  19.496  1.00  0.00    +0.149 C 
BRANCH   2   3
ATOM      3  N   UNL     1      52.467  51.664  19.986  1.00  0.00    -0.306 NA
ATOM      4  H   UNL     1      52.953  51.149  20.732  1.00  0.00    +0.123 HD
BRANCH   3   5
ATOM      5  C   UNL     1      52.035  52.952  20.548  1.00  0.00    +0.081 C 
BRANCH   5   6
ATOM      6  C   UNL     1      50.577  52.966  21.010  1.00  0.00    +0.012 C 
ATOM      7  C   UNL     1      49.803  54.101  20.356  1.00  0.00    +0.005 C 
ENDBRANCH   5   6
ENDBRANCH   3   5
ENDBRANCH   2   3
BRANCH   2   8
ATOM      8  C   UNL     1      51.564  49.368  19.900  1.00  0.00    +0.234 C 
ATOM      9  O   UNL     1      50.639  48.653  20.278  1.00  0.00    -0.274 OA
ATOM     10  N   UNL     1      52.850  48.921  19.897  1.00  0.00    -0.368 N 
ATOM     11  H   UNL     1      53.542  49.339  19.287  1.00  0.00    +0.159 HD
ATOM     12  H   UNL     1      52.966  47.926  20.064  1.00  0.00    +0.159 HD
ENDBRANCH   2   8
ENDBRANCH   1   2
BRANCH   1  13
ATOM     13  C   UNL     1      49.844  50.854  17.413  1.00  0.00    +0.264 C 
BRANCH  13  14
ATOM     14  N   UNL     1      49.740  49.770  16.325  1.00  0.00    -0.335 N 
ATOM     15  C   UNL     1      50.756  49.986  15.237  1.00  0.00    +0.332 C 
ATOM     16  H   UNL     1      49.999  48.900  16.804  1.00  0.00    +0.348 HD
BRANCH  14  17
ATOM     17  C   UNL     1      48.278  49.565  15.869  1.00  0.00    +0.186 C 
ATOM     18  C   UNL     1      48.172  49.682  14.344  1.00  0.00    +0.076 C 
BRANCH  17  19
ATOM     19  C   UNL     1      47.576  48.295  16.483  1.00  0.00    +0.014 C 
ATOM     20  C   UNL     1      46.521  47.650  15.562  1.00  0.00    +0.017 C 
ATOM     21  C   UNL     1      48.591  47.216  16.915  1.00  0.00    +0.017 C 
ATOM     22  C   UNL     1      46.825  48.737  17.768  1.00  0.00    +0.017 C 
ENDBRANCH  17  19
ENDBRANCH  14  17
ENDBRANCH  13  14
ENDBRANCH   1  13
TORSDOF 9
ENDMDL
MODEL 5
REMARK VINA RESULT:    -5.732      2.652      6.241
REMARK INTER + INTRA:          -9.573
REMARK INTER:                  -8.675
REMARK INTRA:                  -0.898
REMARK UNBOUND:                -0.825
REMARK SMILES CCCN[C@@H](CC[NH+](C)[C@@H](C)C(C)(C)C)C(N)=O
REMARK SMILES IDX 6 1 5 2 4 3 3 5 2 6 1 7 16 8 18 9 17 10 7 13 8 14 9 15 10 17
REMARK SMILES IDX 11 18 12 19 13 20 14 21 15 22
REMARK H PARENT 4 4 17 11 17 12 8 16
ROOT
ATOM      1  C   UNL     1      50.903  52.903  20.583  1.00  0.00    +0.090 C 
ENDROOT
BRANCH   1   2
ATOM      2  C   UNL     1      52.001  52.196  19.766  1.00  0.00    +0.149 C 
BRANCH   2   3
ATOM      3  N   UNL     1      51.467  51.825  18.441  1.00  0.00    -0.306 NA
ATOM      4  H   UNL     1      51.654  52.595  17.786  1.00  0.00    +0.123 HD
BRANCH   3   5
ATOM      5  C   UNL     1      50.015  51.591  18.443  1.00  0.00    +0.081 C 
BRANCH   5   6
ATOM      6  C   UNL     1      49.262  52.380  17.371  1.00  0.00    +0.012 C 
ATOM      7  C   UNL     1      47.802  51.956  17.298  1.00  0.00    +0.005 C 
ENDBRANCH   5   6
ENDBRANCH   3   5
ENDBRANCH   2   3
BRANCH   2   8
ATOM      8  C   UNL     1      52.457  50.937  20.522  1.00  0.00    +0.234 C 
ATOM      9  O   UNL     1      53.125  50.059  19.982  1.00  0.00    -0.274 OA
ATOM     10  N   UNL     1      52.013  50.805  21.801  1.00  0.00    -0.368 N 
ATOM     11  H   UNL     1      51.785  51.621  22.358  1.00  0.00    +0.159 HD
ATOM     12  H   UNL     1      52.406  50.026  22.321  1.00  0.00    +0.159 HD
ENDBRANCH   2   8
ENDBRANCH   1   2
BRANCH   1  13
ATOM     13  C   UNL     1      51.402  54.151  21.323  1.00  0.00    +0.264 C 
BRANCH  13  14
ATOM     14  N   UNL     1      51.116  55.417  20.496  1.00  0.00    -0.335 N 
ATOM     15  C   UNL     1      52.352  56.261  20.339  1.00  0.00    +0.332 C 
ATOM     16  H   UNL     1      50.877  55.065  19.561  1.00  0.00    +0.348 HD
BRANCH  14  17
ATOM     17  C   UNL     1      49.846  56.143  20.994  1.00  0.00    +0.186 C 
ATOM     18  C   UNL     1      50.218  57.475  21.656  1.00  0.00    +0.076 C 
BRANCH  17  19
ATOM     19  C   UNL     1      48.689  56.237  19.929  1.00  0.00    +0.014 C 
ATOM     20  C   UNL     1      47.608  57.284  20.262  1.00  0.00    +0.017 C 
ATOM     21  C   UNL     1      49.222  56.501  18.506  1.00  0.00    +0.017 C 
ATOM     22  C   UNL     1      47.968  54.862  19.884  1.00  0.00    +0.017 C 
ENDBRANCH  17  19
ENDBRANCH  14  17
ENDBRANCH  13  14
ENDBRANCH   1  13
TORSDOF 9
ENDMDL
