MODEL 1
REMARK VINA RESULT:    -7.153      0.000      0.000
REMARK INTER + INTRA:         -11.566
REMARK INTER:                 -10.498
REMARK INTRA:                  -1.068
REMARK UNBOUND:                -1.068
REMARK SMILES CCC1CCC([NH+](C)CC[C@H](NC2CC2)C(N)=O)CC1
REMARK SMILES IDX 9 1 7 2 8 3 6 5 3 6 4 7 20 8 5 9 19 10 2 11 1 12 10 13 11 14
REMARK SMILES IDX 16 15 18 16 17 17 12 20 13 22 14 23 15 24
REMARK H PARENT 7 4 17 18 17 19 12 21
ROOT
ATOM      1  C   UNL     1      51.740  54.785  19.191  1.00  0.00    +0.264 C 
ENDROOT
BRANCH   1   2
ATOM      2  N   UNL     1      51.679  55.546  20.519  1.00  0.00    -0.335 N 
ATOM      3  C   UNL     1      52.697  56.662  20.555  1.00  0.00    +0.332 C 
ATOM      4  H   UNL     1      51.991  54.861  21.221  1.00  0.00    +0.348 HD
BRANCH   2   5
ATOM      5  C   UNL     1      50.271  55.982  20.967  1.00  0.00    +0.183 C 
ATOM      6  C   UNL     1      47.879  57.773  20.600  1.00  0.00    -0.011 C 
ATOM      7  C   UNL     1      48.884  57.965  21.746  1.00  0.00    +0.010 C 
ATOM      8  C   UNL     1      47.878  56.303  20.167  1.00  0.00    +0.010 C 
ATOM      9  C   UNL     1      50.286  57.455  21.408  1.00  0.00    +0.065 C 
ATOM     10  C   UNL     1      49.272  55.780  19.815  1.00  0.00    +0.065 C 
BRANCH   6  11
ATOM     11  C   UNL     1      48.159  58.758  19.447  1.00  0.00    +0.000 C 
ATOM     12  C   UNL     1      47.081  59.823  19.286  1.00  0.00    +0.004 C 
ENDBRANCH   6  11
ENDBRANCH   2   5
ENDBRANCH   1   2
BRANCH   1  13
ATOM     13  C   UNL     1      52.648  53.557  19.263  1.00  0.00    +0.090 C 
BRANCH  13  14
ATOM     14  C   UNL     1      51.889  52.287  19.690  1.00  0.00    +0.149 C 
BRANCH  14  15
ATOM     15  C   UNL     1      51.998  52.042  21.208  1.00  0.00    +0.234 C 
ATOM     16  O   UNL     1      51.776  52.908  22.050  1.00  0.00    -0.274 OA
ATOM     17  N   UNL     1      52.419  50.797  21.575  1.00  0.00    -0.368 N 
ATOM     18  H   UNL     1      52.579  50.616  22.560  1.00  0.00    +0.159 HD
ATOM     19  H   UNL     1      52.794  50.133  20.911  1.00  0.00    +0.159 HD
ENDBRANCH  14  15
BRANCH  14  20
ATOM     20  N   UNL     1      50.472  52.473  19.321  1.00  0.00    -0.303 NA
ATOM     21  H   UNL     1      49.857  52.116  20.059  1.00  0.00    +0.123 HD
BRANCH  20  22
ATOM     22  C   UNL     1      50.121  51.908  18.017  1.00  0.00    +0.054 C 
ATOM     23  C   UNL     1      48.766  52.190  17.435  1.00  0.00    +0.020 C 
ATOM     24  C   UNL     1      49.084  50.824  17.971  1.00  0.00    +0.020 C 
ENDBRANCH  20  22
ENDBRANCH  14  20
ENDBRANCH  13  14
ENDBRANCH   1  13
TORSDOF 8
ENDMDL
MODEL 2
REMARK VINA RESULT:    -7.129      2.074      3.267
REMARK INTER + INTRA:         -11.531
REMARK INTER:                 -10.811
REMARK INTRA:                  -0.719
REMARK UNBOUND:                -1.068
REMARK SMILES CCC1CCC([NH+](C)CC[C@H](NC2CC2)C(N)=O)CC1
REMARK SMILES IDX 9 1 7 2 8 3 6 5 3 6 4 7 20 8 5 9 19 10 2 11 1 12 10 13 11 14
REMARK SMILES IDX 16 15 18 16 17 17 12 20 13 22 14 23 15 24
REMARK H PARENT 7 4 17 18 17 19 12 21
ROOT
ATOM      1  C   UNL     1      51.013  52.853  18.645  1.00  0.00    +0.264 C 
ENDROOT
BRANCH   1   2
ATOM      2  N   UNL     1      50.086  54.065  18.776  1.00  0.00    -0.335 N 
ATOM      3  C   UNL     1      48.703  53.751  18.253  1.00  0.00    +0.332 C 
ATOM      4  H   UNL     1      50.478  54.760  18.127  1.00  0.00    +0.348 HD
BRANCH   2   5
ATOM      5  C   UNL     1      50.081  54.748  20.157  1.00  0.00    +0.183 C 
ATOM      6  C   UNL     1      50.926  57.047  21.908  1.00  0.00    -0.011 C 
ATOM      7  C   UNL     1      51.569  55.655  22.007  1.00  0.00    +0.010 C 
ATOM      8  C   UNL     1      49.499  56.908  21.366  1.00  0.00    +0.010 C 
ATOM      9  C   UNL     1      51.515  54.873  20.694  1.00  0.00    +0.065 C 
ATOM     10  C   UNL     1      49.429  56.138  20.047  1.00  0.00    +0.065 C 
BRANCH   6  11
ATOM     11  C   UNL     1      51.810  58.008  21.087  1.00  0.00    +0.000 C 
ATOM     12  C   UNL     1      53.079  58.434  21.815  1.00  0.00    +0.004 C 
ENDBRANCH   6  11
ENDBRANCH   2   5
ENDBRANCH   1   2
BRANCH   1  13
ATOM     13  C   UNL     1      50.484  51.629  19.392  1.00  0.00    +0.090 C 
BRANCH  13  14
ATOM     14  C   UNL     1      51.250  50.343  19.036  1.00  0.00    +0.149 C 
BRANCH  14  15
ATOM     15  C   UNL     1      52.411  50.081  20.016  1.00  0.00    +0.234 C 
ATOM     16  O   UNL     1      52.767  50.886  20.872  1.00  0.00    -0.274 OA
ATOM     17  N   UNL     1      53.078  48.904  19.839  1.00  0.00    -0.368 N 
ATOM     18  H   UNL     1      53.896  48.726  20.410  1.00  0.00    +0.159 HD
ATOM     19  H   UNL     1      52.938  48.318  19.027  1.00  0.00    +0.159 HD
ENDBRANCH  14  15
BRANCH  14  20
ATOM     20  N   UNL     1      50.290  49.224  19.101  1.00  0.00    -0.303 NA
ATOM     21  H   UNL     1      50.757  48.334  18.899  1.00  0.00    +0.123 HD
BRANCH  20  22
ATOM     22  C   UNL     1      49.109  49.407  18.255  1.00  0.00    +0.054 C 
ATOM     23  C   UNL     1      47.784  48.874  18.718  1.00  0.00    +0.020 C 
ATOM     24  C   UNL     1      48.515  48.196  17.596  1.00  0.00    +0.020 C 
ENDBRANCH  20  22
ENDBRANCH  14  20
ENDBRANCH  13  14
ENDBRANCH   1  13
TORSDOF 8
ENDMDL
MODEL 3
REMARK VINA RESULT:    -6.888      3.876      7.670
REMARK INTER + INTRA:         -11.178
REMARK INTER:                 -10.439
REMARK INTRA:                  -0.739
REMARK UNBOUND:                -1.068
REMARK SMILES CCC1CCC([NH+](C)CC[C@H](NC2CC2)C(N)=O)CC1
REMARK SMILES IDX 9 1 7 2 8 3 6 5 3 6 4 7 20 8 5 9 19 10 2 11 1 12 10 13 11 14
REMARK SMILES IDX 16 15 18 16 17 17 12 20 13 22 14 23 15 24
REMARK H PARENT 7 4 17 18 17 19 12 21
ROOT
ATOM      1  C   UNL     1      49.657  49.879  18.036  1.00  0.00    +0.264 C 
ENDROOT
BRANCH   1   2
ATOM      2  N   UNL     1      48.946  50.090  16.696  1.00  0.00    -0.335 N 
ATOM      3  C   UNL     1      49.927  50.053  15.547  1.00  0.00    +0.332 C 
ATOM      4  H   UNL     1      48.602  51.059  16.738  1.00  0.00    +0.348 HD
BRANCH   2   5
ATOM      5  C   UNL     1      47.696  49.219  16.466  1.00  0.00    +0.183 C 
ATOM      6  C   UNL     1      45.477  47.528  17.598  1.00  0.00    -0.011 C 
ATOM      7  C   UNL     1      46.688  46.921  16.873  1.00  0.00    +0.010 C 
ATOM      8  C   UNL     1      45.245  48.955  17.089  1.00  0.00    +0.010 C 
ATOM      9  C   UNL     1      47.944  47.788  16.970  1.00  0.00    +0.065 C 
ATOM     10  C   UNL     1      46.489  49.839  17.190  1.00  0.00    +0.065 C 
BRANCH   6  11
ATOM     11  C   UNL     1      45.644  47.436  19.128  1.00  0.00    +0.000 C 
ATOM     12  C   UNL     1      44.374  47.001  19.850  1.00  0.00    +0.004 C 
ENDBRANCH   6  11
ENDBRANCH   2   5
ENDBRANCH   1   2
BRANCH   1  13
ATOM     13  C   UNL     1      50.250  51.174  18.592  1.00  0.00    +0.090 C 
BRANCH  13  14
ATOM     14  C   UNL     1      51.327  50.919  19.662  1.00  0.00    +0.149 C 
BRANCH  14  15
ATOM     15  C   UNL     1      52.463  50.025  19.126  1.00  0.00    +0.234 C 
ATOM     16  O   UNL     1      53.056  50.246  18.073  1.00  0.00    -0.274 OA
ATOM     17  N   UNL     1      52.743  48.917  19.870  1.00  0.00    -0.368 N 
ATOM     18  H   UNL     1      53.429  48.261  19.515  1.00  0.00    +0.159 HD
ATOM     19  H   UNL     1      52.147  48.606  20.626  1.00  0.00    +0.159 HD
ENDBRANCH  14  15
BRANCH  14  20
ATOM     20  N   UNL     1      51.877  52.230  20.058  1.00  0.00    -0.303 NA
ATOM     21  H   UNL     1      52.808  52.368  19.653  1.00  0.00    +0.123 HD
BRANCH  20  22
ATOM     22  C   UNL     1      51.888  52.455  21.505  1.00  0.00    +0.054 C 
ATOM     23  C   UNL     1      50.594  52.726  22.216  1.00  0.00    +0.020 C 
ATOM     24  C   UNL     1      51.583  53.836  22.009  1.00  0.00    +0.020 C 
ENDBRANCH  20  22
ENDBRANCH  14  20
ENDBRANCH  13  14
ENDBRANCH   1  13
TORSDOF 8
ENDMDL
MODEL 4
REMARK VINA RESULT:    -6.663      2.035      6.404
REMARK INTER + INTRA:         -10.847
REMARK INTER:                 -10.068
REMARK INTRA:                  -0.779
REMARK UNBOUND:                -1.068
REMARK SMILES CCC1CCC([NH+](C)CC[C@H](NC2CC2)C(N)=O)CC1
REMARK SMILES IDX 9 1 7 2 8 3 6 5 3 6 4 7 20 8 5 9 19 10 2 11 1 12 10 13 11 14
REMARK SMILES IDX 16 15 18 16 17 17 12 20 13 22 14 23 15 24
REMARK H PARENT 7 4 17 18 17 19 12 21
ROOT
ATOM      1  C   UNL     1      49.923  52.773  18.506  1.00  0.00    +0.264 C 
ENDROOT
BRANCH   1   2
ATOM      2  N   UNL     1      50.805  51.796  17.722  1.00  0.00    -0.335 N 
ATOM      3  C   UNL     1      52.179  51.685  18.342  1.00  0.00    +0.332 C 
ATOM      4  H   UNL     1      50.946  52.252  16.810  1.00  0.00    +0.348 HD
BRANCH   2   5
ATOM      5  C   UNL     1      50.162  50.432  17.405  1.00  0.00    +0.183 C 
ATOM      6  C   UNL     1      47.687  48.792  16.911  1.00  0.00    -0.011 C 
ATOM      7  C   UNL     1      48.480  48.712  18.224  1.00  0.00    +0.010 C 
ATOM      8  C   UNL     1      48.624  49.227  15.778  1.00  0.00    +0.010 C 
ATOM      9  C   UNL     1      49.233  50.002  18.551  1.00  0.00    +0.065 C 
ATOM     10  C   UNL     1      49.377  50.522  16.085  1.00  0.00    +0.065 C 
BRANCH   6  11
ATOM     11  C   UNL     1      46.445  49.693  17.068  1.00  0.00    +0.000 C 
ATOM     12  C   UNL     1      45.242  48.967  17.658  1.00  0.00    +0.004 C 
ENDBRANCH   6  11
ENDBRANCH   2   5
ENDBRANCH   1   2
BRANCH   1  13
ATOM     13  C   UNL     1      50.741  53.815  19.268  1.00  0.00    +0.090 C 
BRANCH  13  14
ATOM     14  C   UNL     1      50.180  54.093  20.674  1.00  0.00    +0.149 C 
BRANCH  14  15
ATOM     15  C   UNL     1      51.188  53.713  21.776  1.00  0.00    +0.234 C 
ATOM     16  O   UNL     1      52.027  54.492  22.223  1.00  0.00    -0.274 OA
ATOM     17  N   UNL     1      51.138  52.417  22.199  1.00  0.00    -0.368 N 
ATOM     18  H   UNL     1      51.834  52.103  22.867  1.00  0.00    +0.159 HD
ATOM     19  H   UNL     1      50.600  51.710  21.718  1.00  0.00    +0.159 HD
ENDBRANCH  14  15
BRANCH  14  20
ATOM     20  N   UNL     1      49.884  55.537  20.754  1.00  0.00    -0.303 NA
ATOM     21  H   UNL     1      49.885  55.852  21.729  1.00  0.00    +0.123 HD
BRANCH  20  22
ATOM     22  C   UNL     1      48.650  55.928  20.071  1.00  0.00    +0.054 C 
ATOM     23  C   UNL     1      48.612  57.216  19.302  1.00  0.00    +0.020 C 
ATOM     24  C   UNL     1      47.883  57.100  20.609  1.00  0.00    +0.020 C 
ENDBRANCH  20  22
ENDBRANCH  14  20
ENDBRANCH  13  14
ENDBRANCH   1  13
TORSDOF 8
ENDMDL
MODEL 5
REMARK VINA RESULT:    -6.513      2.077      6.346
REMARK INTER + INTRA:         -10.627
REMARK INTER:                  -9.762
REMARK INTRA:                  -0.865
REMARK UNBOUND:                -1.068
REMARK SMILES CCC1CCC([NH+](C)CC[C@H](NC2CC2)C(N)=O)CC1
REMARK SMILES IDX 9 1 7 2 8 3 6 5 3 6 4 7 20 8 5 9 19 10 2 11 1 12 10 13 11 14
REMARK SMILES IDX 16 15 18 16 17 17 12 20 13 22 14 23 15 24
REMARK H PARENT 7 4 17 18 17 19 12 21
ROOT
ATOM      1  C   UNL     1      51.606  55.238  19.366  1.00  0.00    +0.264 C 
ENDROOT
BRANCH   1   2
ATOM      2  N   UNL     1      50.415  54.317  19.087  1.00  0.00    -0.335 N 
ATOM      3  C   UNL     1      49.281  55.075  18.437  1.00  0.00    +0.332 C 
ATOM      4  H   UNL     1      50.073  54.051  20.021  1.00  0.00    +0.348 HD
BRANCH   2   5
ATOM      5  C   UNL     1      50.754  52.991  18.380  1.00  0.00    +0.183 C 
ATOM      6  C   UNL     1      50.326  50.024  18.103  1.00  0.00    -0.011 C 
ATOM      7  C   UNL     1      51.587  50.618  18.750  1.00  0.00    +0.010 C 
ATOM      8  C   UNL     1      49.742  51.035  17.109  1.00  0.00    +0.010 C 
ATOM      9  C   UNL     1      51.348  51.990  19.383  1.00  0.00    +0.065 C 
ATOM     10  C   UNL     1      49.487  52.409  17.730  1.00  0.00    +0.065 C 
BRANCH   6  11
ATOM     11  C   UNL     1      49.321  49.557  19.174  1.00  0.00    +0.000 C 
ATOM     12  C   UNL     1      48.072  48.907  18.591  1.00  0.00    +0.004 C 
ENDBRANCH   6  11
ENDBRANCH   2   5
ENDBRANCH   1   2
BRANCH   1  13
ATOM     13  C   UNL     1      52.023  55.224  20.837  1.00  0.00    +0.090 C 
BRANCH  13  14
ATOM     14  C   UNL     1      51.742  56.563  21.543  1.00  0.00    +0.149 C 
BRANCH  14  15
ATOM     15  C   UNL     1      52.986  57.473  21.553  1.00  0.00    +0.234 C 
ATOM     16  O   UNL     1      54.080  57.128  21.113  1.00  0.00    -0.274 OA
ATOM     17  N   UNL     1      52.820  58.691  22.144  1.00  0.00    -0.368 N 
ATOM     18  H   UNL     1      53.632  59.291  22.243  1.00  0.00    +0.159 HD
ATOM     19  H   UNL     1      51.998  58.925  22.685  1.00  0.00    +0.159 HD
ENDBRANCH  14  15
BRANCH  14  20
ATOM     20  N   UNL     1      50.650  57.231  20.808  1.00  0.00    -0.303 NA
ATOM     21  H   UNL     1      50.902  58.199  20.587  1.00  0.00    +0.123 HD
BRANCH  20  22
ATOM     22  C   UNL     1      49.352  57.158  21.481  1.00  0.00    +0.054 C 
ATOM     23  C   UNL     1      48.125  57.645  20.766  1.00  0.00    +0.020 C 
ATOM     24  C   UNL     1      48.700  58.444  21.900  1.00  0.00    +0.020 C 
ENDBRANCH  20  22
ENDBRANCH  14  20
ENDBRANCH  13  14
ENDBRANCH   1  13
TORSDOF 8
ENDMDL
