MODEL 1
REMARK VINA RESULT:    -8.414      0.000      0.000
REMARK INTER + INTRA:         -12.941
REMARK INTER:                 -12.348
REMARK INTRA:                  -0.593
REMARK UNBOUND:                -0.593
REMARK SMILES CC(C)(C)OC(=O)NCCNC(=O)N[C@H](c1ccccc1)C1CC1
REMARK SMILES IDX 9 1 8 2 6 3 7 4 5 6 2 7 1 8 3 9 4 10 10 11 11 12 12 13 13 14
REMARK SMILES IDX 14 15 15 18 16 19 17 20 21 21 18 22 20 23 19 24 22 25 23 26
REMARK SMILES IDX 24 27
REMARK H PARENT 8 5 11 16 14 17
ROOT
ATOM      1  C   UNL     1      52.043  50.064  19.975  1.00  0.00    +0.140 C 
ENDROOT
BRANCH   1   2
ATOM      2  N   UNL     1      50.738  49.466  19.805  1.00  0.00    -0.320 N 
ATOM      3  C   UNL     1      49.766  50.029  19.036  1.00  0.00    +0.407 C 
ATOM      4  O   UNL     1      49.902  51.052  18.385  1.00  0.00    -0.225 OA
ATOM      5  H   UNL     1      50.471  48.658  20.349  1.00  0.00    +0.167 HD
BRANCH   3   6
ATOM      6  O   UNL     1      48.647  49.278  19.131  1.00  0.00    -0.444 OA
BRANCH   6   7
ATOM      7  C   UNL     1      47.859  48.971  17.953  1.00  0.00    +0.106 C 
ATOM      8  C   UNL     1      47.319  50.246  17.296  1.00  0.00    +0.056 C 
ATOM      9  C   UNL     1      48.649  48.108  16.964  1.00  0.00    +0.056 C 
ATOM     10  C   UNL     1      46.672  48.151  18.482  1.00  0.00    +0.056 C 
ENDBRANCH   6   7
ENDBRANCH   3   6
ENDBRANCH   1   2
BRANCH   1  11
ATOM     11  C   UNL     1      52.041  51.196  21.011  1.00  0.00    +0.139 C 
BRANCH  11  12
ATOM     12  N   UNL     1      51.978  52.514  20.407  1.00  0.00    -0.336 N 
ATOM     13  C   UNL     1      51.963  53.642  21.188  1.00  0.00    +0.315 C 
ATOM     14  O   UNL     1      51.958  53.624  22.410  1.00  0.00    -0.249 OA
ATOM     15  N   UNL     1      51.979  54.772  20.416  1.00  0.00    -0.331 N 
ATOM     16  H   UNL     1      52.388  52.619  19.491  1.00  0.00    +0.165 HD
ATOM     17  H   UNL     1      51.523  54.670  19.524  1.00  0.00    +0.166 HD
BRANCH  15  18
ATOM     18  C   UNL     1      51.846  56.081  21.027  1.00  0.00    +0.117 C 
BRANCH  18  19
ATOM     19  C   UNL     1      50.407  56.565  20.911  1.00  0.00    -0.025 A 
ATOM     20  C   UNL     1      49.592  56.060  19.883  1.00  0.00    +0.006 A 
ATOM     21  C   UNL     1      49.874  57.547  21.762  1.00  0.00    +0.006 A 
ATOM     22  C   UNL     1      48.276  56.501  19.731  1.00  0.00    +0.000 A 
ATOM     23  C   UNL     1      48.557  57.986  21.610  1.00  0.00    +0.000 A 
ATOM     24  C   UNL     1      47.758  57.461  20.597  1.00  0.00    +0.000 A 
ENDBRANCH  18  19
BRANCH  18  25
ATOM     25  C   UNL     1      52.811  57.083  20.429  1.00  0.00    +0.016 C 
ATOM     26  C   UNL     1      52.923  58.481  20.997  1.00  0.00    +0.006 C 
ATOM     27  C   UNL     1      54.093  57.542  21.093  1.00  0.00    +0.006 C 
ENDBRANCH  18  25
ENDBRANCH  15  18
ENDBRANCH  11  12
ENDBRANCH   1  11
TORSDOF 8
ENDMDL
MODEL 2
REMARK VINA RESULT:    -8.290      1.951      7.599
REMARK INTER + INTRA:         -12.759
REMARK INTER:                 -12.058
REMARK INTRA:                  -0.701
REMARK UNBOUND:                -0.593
REMARK SMILES CC(C)(C)OC(=O)NCCNC(=O)N[C@H](c1ccccc1)C1CC1
REMARK SMILES IDX 9 1 8 2 6 3 7 4 5 6 2 7 1 8 3 9 4 10 10 11 11 12 12 13 13 14
REMARK SMILES IDX 14 15 15 18 16 19 17 20 21 21 18 22 20 23 19 24 22 25 23 26
REMARK SMILES IDX 24 27
REMARK H PARENT 8 5 11 16 14 17
ROOT
ATOM      1  C   UNL     1      52.383  51.127  20.997  1.00  0.00    +0.140 C 
ENDROOT
BRANCH   1   2
ATOM      2  N   UNL     1      51.284  52.022  20.711  1.00  0.00    -0.320 N 
ATOM      3  C   UNL     1      51.050  53.153  21.431  1.00  0.00    +0.407 C 
ATOM      4  O   UNL     1      51.753  53.550  22.347  1.00  0.00    -0.225 OA
ATOM      5  H   UNL     1      50.584  51.770  20.027  1.00  0.00    +0.167 HD
BRANCH   3   6
ATOM      6  O   UNL     1      49.922  53.736  20.972  1.00  0.00    -0.444 OA
BRANCH   6   7
ATOM      7  C   UNL     1      49.979  54.985  20.237  1.00  0.00    +0.106 C 
ATOM      8  C   UNL     1      50.102  56.183  21.185  1.00  0.00    +0.056 C 
ATOM      9  C   UNL     1      51.098  54.965  19.191  1.00  0.00    +0.056 C 
ATOM     10  C   UNL     1      48.628  55.072  19.510  1.00  0.00    +0.056 C 
ENDBRANCH   6   7
ENDBRANCH   3   6
ENDBRANCH   1   2
BRANCH   1  11
ATOM     11  C   UNL     1      52.656  50.145  19.850  1.00  0.00    +0.139 C 
BRANCH  11  12
ATOM     12  N   UNL     1      51.459  49.466  19.391  1.00  0.00    -0.336 N 
ATOM     13  C   UNL     1      50.726  49.967  18.345  1.00  0.00    +0.315 C 
ATOM     14  O   UNL     1      50.991  51.012  17.767  1.00  0.00    -0.249 OA
ATOM     15  N   UNL     1      49.688  49.134  18.030  1.00  0.00    -0.331 N 
ATOM     16  H   UNL     1      51.424  48.464  19.511  1.00  0.00    +0.165 HD
ATOM     17  H   UNL     1      49.316  48.622  18.813  1.00  0.00    +0.166 HD
BRANCH  15  18
ATOM     18  C   UNL     1      48.709  49.525  17.032  1.00  0.00    +0.117 C 
BRANCH  18  19
ATOM     19  C   UNL     1      47.326  49.037  17.442  1.00  0.00    -0.025 A 
ATOM     20  C   UNL     1      47.181  48.297  18.628  1.00  0.00    +0.006 A 
ATOM     21  C   UNL     1      46.188  49.250  16.646  1.00  0.00    +0.006 A 
ATOM     22  C   UNL     1      45.932  47.812  19.021  1.00  0.00    +0.000 A 
ATOM     23  C   UNL     1      44.939  48.765  17.041  1.00  0.00    +0.000 A 
ATOM     24  C   UNL     1      44.811  48.049  18.229  1.00  0.00    +0.000 A 
ENDBRANCH  18  19
BRANCH  18  25
ATOM     25  C   UNL     1      49.080  49.023  15.652  1.00  0.00    +0.016 C 
ATOM     26  C   UNL     1      48.583  49.734  14.413  1.00  0.00    +0.006 C 
ATOM     27  C   UNL     1      50.054  49.716  14.721  1.00  0.00    +0.006 C 
ENDBRANCH  18  25
ENDBRANCH  15  18
ENDBRANCH  11  12
ENDBRANCH   1  11
TORSDOF 8
ENDMDL
MODEL 3
REMARK VINA RESULT:    -7.402      1.547      3.070
REMARK INTER + INTRA:         -11.457
REMARK INTER:                 -10.797
REMARK INTRA:                  -0.660
REMARK UNBOUND:                -0.593
REMARK SMILES CC(C)(C)OC(=O)NCCNC(=O)N[C@H](c1ccccc1)C1CC1
REMARK SMILES IDX 9 1 8 2 6 3 7 4 5 6 2 7 1 8 3 9 4 10 10 11 11 12 12 13 13 14
REMARK SMILES IDX 14 15 15 18 16 19 17 20 21 21 18 22 20 23 19 24 22 25 23 26
REMARK SMILES IDX 24 27
REMARK H PARENT 8 5 11 16 14 17
ROOT
ATOM      1  C   UNL     1      51.755  49.327  19.901  1.00  0.00    +0.140 C 
ENDROOT
BRANCH   1   2
ATOM      2  N   UNL     1      50.323  49.205  19.750  1.00  0.00    -0.320 N 
ATOM      3  C   UNL     1      49.658  49.662  18.654  1.00  0.00    +0.407 C 
ATOM      4  O   UNL     1      50.191  50.173  17.682  1.00  0.00    -0.225 OA
ATOM      5  H   UNL     1      49.755  48.870  20.515  1.00  0.00    +0.167 HD
BRANCH   3   6
ATOM      6  O   UNL     1      48.333  49.468  18.836  1.00  0.00    -0.444 OA
BRANCH   6   7
ATOM      7  C   UNL     1      47.598  48.543  17.996  1.00  0.00    +0.106 C 
ATOM      8  C   UNL     1      48.522  47.472  17.405  1.00  0.00    +0.056 C 
ATOM      9  C   UNL     1      46.415  47.926  18.749  1.00  0.00    +0.056 C 
ATOM     10  C   UNL     1      47.053  49.407  16.848  1.00  0.00    +0.056 C 
ENDBRANCH   6   7
ENDBRANCH   3   6
ENDBRANCH   1   2
BRANCH   1  11
ATOM     11  C   UNL     1      52.165  50.638  20.585  1.00  0.00    +0.139 C 
BRANCH  11  12
ATOM     12  N   UNL     1      51.090  51.611  20.631  1.00  0.00    -0.336 N 
ATOM     13  C   UNL     1      51.054  52.658  19.745  1.00  0.00    +0.315 C 
ATOM     14  O   UNL     1      51.918  52.870  18.906  1.00  0.00    -0.249 OA
ATOM     15  N   UNL     1      49.921  53.406  19.915  1.00  0.00    -0.331 N 
ATOM     16  H   UNL     1      50.195  51.290  20.968  1.00  0.00    +0.165 HD
ATOM     17  H   UNL     1      49.578  53.426  20.862  1.00  0.00    +0.166 HD
BRANCH  15  18
ATOM     18  C   UNL     1      49.732  54.634  19.167  1.00  0.00    +0.117 C 
BRANCH  18  19
ATOM     19  C   UNL     1      49.658  55.818  20.121  1.00  0.00    -0.025 A 
ATOM     20  C   UNL     1      50.811  56.207  20.824  1.00  0.00    +0.006 A 
ATOM     21  C   UNL     1      48.460  56.507  20.372  1.00  0.00    +0.006 A 
ATOM     22  C   UNL     1      50.773  57.272  21.727  1.00  0.00    +0.000 A 
ATOM     23  C   UNL     1      48.423  57.572  21.275  1.00  0.00    +0.000 A 
ATOM     24  C   UNL     1      49.580  57.956  21.949  1.00  0.00    +0.000 A 
ENDBRANCH  18  19
BRANCH  18  25
ATOM     25  C   UNL     1      48.506  54.569  18.279  1.00  0.00    +0.016 C 
ATOM     26  C   UNL     1      48.530  55.159  16.886  1.00  0.00    +0.006 C 
ATOM     27  C   UNL     1      48.374  53.675  17.063  1.00  0.00    +0.006 C 
ENDBRANCH  18  25
ENDBRANCH  15  18
ENDBRANCH  11  12
ENDBRANCH   1  11
TORSDOF 8
ENDMDL
MODEL 4
REMARK VINA RESULT:    -6.979      1.648      3.315
REMARK INTER + INTRA:         -10.837
REMARK INTER:                 -10.518
REMARK INTRA:                  -0.319
REMARK UNBOUND:                -0.593
REMARK SMILES CC(C)(C)OC(=O)NCCNC(=O)N[C@H](c1ccccc1)C1CC1
REMARK SMILES IDX 9 1 8 2 6 3 7 4 5 6 2 7 1 8 3 9 4 10 10 11 11 12 12 13 13 14
REMARK SMILES IDX 14 15 15 18 16 19 17 20 21 21 18 22 20 23 19 24 22 25 23 26
REMARK SMILES IDX 24 27
REMARK H PARENT 8 5 11 16 14 17
ROOT
ATOM      1  C   UNL     1      51.428  49.766  19.849  1.00  0.00    +0.140 C 
ENDROOT
BRANCH   1   2
ATOM      2  N   UNL     1      50.783  49.725  18.556  1.00  0.00    -0.320 N 
ATOM      3  C   UNL     1      49.504  49.293  18.386  1.00  0.00    +0.407 C 
ATOM      4  O   UNL     1      48.763  48.944  19.291  1.00  0.00    -0.225 OA
ATOM      5  H   UNL     1      51.311  49.916  17.716  1.00  0.00    +0.167 HD
BRANCH   3   6
ATOM      6  O   UNL     1      49.212  49.306  17.067  1.00  0.00    -0.444 OA
BRANCH   6   7
ATOM      7  C   UNL     1      48.199  50.200  16.541  1.00  0.00    +0.106 C 
ATOM      8  C   UNL     1      46.857  50.002  17.255  1.00  0.00    +0.056 C 
ATOM      9  C   UNL     1      48.664  51.659  16.591  1.00  0.00    +0.056 C 
ATOM     10  C   UNL     1      48.038  49.785  15.071  1.00  0.00    +0.056 C 
ENDBRANCH   6   7
ENDBRANCH   3   6
ENDBRANCH   1   2
BRANCH   1  11
ATOM     11  C   UNL     1      52.519  50.843  19.929  1.00  0.00    +0.139 C 
BRANCH  11  12
ATOM     12  N   UNL     1      52.009  52.132  20.356  1.00  0.00    -0.336 N 
ATOM     13  C   UNL     1      51.958  53.189  19.484  1.00  0.00    +0.315 C 
ATOM     14  O   UNL     1      52.364  53.142  18.331  1.00  0.00    -0.249 OA
ATOM     15  N   UNL     1      51.375  54.281  20.068  1.00  0.00    -0.331 N 
ATOM     16  H   UNL     1      51.313  52.132  21.087  1.00  0.00    +0.165 HD
ATOM     17  H   UNL     1      51.527  54.347  21.062  1.00  0.00    +0.166 HD
BRANCH  15  18
ATOM     18  C   UNL     1      51.325  55.551  19.369  1.00  0.00    +0.117 C 
BRANCH  18  19
ATOM     19  C   UNL     1      52.023  56.625  20.192  1.00  0.00    -0.025 A 
ATOM     20  C   UNL     1      51.250  57.544  20.921  1.00  0.00    +0.006 A 
ATOM     21  C   UNL     1      53.420  56.772  20.204  1.00  0.00    +0.006 A 
ATOM     22  C   UNL     1      51.856  58.558  21.665  1.00  0.00    +0.000 A 
ATOM     23  C   UNL     1      54.026  57.786  20.950  1.00  0.00    +0.000 A 
ATOM     24  C   UNL     1      53.244  58.676  21.682  1.00  0.00    +0.000 A 
ENDBRANCH  18  19
BRANCH  18  25
ATOM     25  C   UNL     1      49.904  55.954  19.034  1.00  0.00    +0.016 C 
ATOM     26  C   UNL     1      48.964  54.980  18.360  1.00  0.00    +0.006 C 
ATOM     27  C   UNL     1      48.676  55.445  19.760  1.00  0.00    +0.006 C 
ENDBRANCH  18  25
ENDBRANCH  15  18
ENDBRANCH  11  12
ENDBRANCH   1  11
TORSDOF 8
ENDMDL
