MODEL 1
REMARK VINA RESULT:    -6.516      0.000      0.000
REMARK INTER + INTRA:          -9.921
REMARK INTER:                  -9.563
REMARK INTRA:                  -0.358
REMARK UNBOUND:                -0.358
REMARK SMILES COCC[NH+](C)CCNc1ccc(C(=O)[O-])cc1Cl
REMARK SMILES IDX 7 1 5 2 6 3 4 5 3 6 2 7 1 8 8 9 9 10 10 12 11 13 18 14 12 15
REMARK SMILES IDX 17 16 13 17 19 18 14 19 15 20 16 21
REMARK H PARENT 5 4 9 11
ROOT
ATOM      1  C   UNL     1      50.003  53.220  19.848  1.00  0.00    +0.283 C 
ENDROOT
BRANCH   1   2
ATOM      2  N   UNL     1      50.662  53.648  21.161  1.00  0.00    -0.334 N 
ATOM      3  C   UNL     1      51.553  52.593  21.742  1.00  0.00    +0.332 C 
ATOM      4  H   UNL     1      49.837  53.704  21.794  1.00  0.00    +0.348 HD
BRANCH   2   5
ATOM      5  C   UNL     1      51.260  55.025  21.112  1.00  0.00    +0.290 C 
BRANCH   5   6
ATOM      6  C   UNL     1      51.679  55.528  22.499  1.00  0.00    +0.221 C 
BRANCH   6   7
ATOM      7  O   UNL     1      52.807  56.395  22.380  1.00  0.00    -0.379 OA
ATOM      8  C   UNL     1      52.496  57.633  21.751  1.00  0.00    +0.195 C 
ENDBRANCH   6   7
ENDBRANCH   5   6
ENDBRANCH   2   5
ENDBRANCH   1   2
BRANCH   1   9
ATOM      9  C   UNL     1      50.580  51.841  19.424  1.00  0.00    +0.174 C 
BRANCH   9  10
ATOM     10  N   UNL     1      50.051  51.464  18.108  1.00  0.00    -0.378 N 
ATOM     11  H   UNL     1      50.759  51.286  17.387  1.00  0.00    +0.160 HD
BRANCH  10  12
ATOM     12  C   UNL     1      48.993  50.545  17.956  1.00  0.00    +0.053 A 
ATOM     13  C   UNL     1      48.938  49.333  18.651  1.00  0.00    +0.028 A 
ATOM     14  C   UNL     1      47.857  50.925  17.202  1.00  0.00    +0.064 A 
ATOM     15  C   UNL     1      47.768  48.573  18.668  1.00  0.00    +0.012 A 
ATOM     16  C   UNL     1      46.690  50.166  17.219  1.00  0.00    +0.032 A 
ATOM     17  C   UNL     1      46.620  48.995  17.986  1.00  0.00    -0.001 A 
ATOM     18 Cl   UNL     1      47.852  52.424  16.333  1.00  0.00    -0.082 Cl
BRANCH  17  19
ATOM     19  C   UNL     1      45.324  48.225  18.110  1.00  0.00    +0.072 C 
ATOM     20  O   UNL     1      44.443  48.447  17.227  1.00  0.00    -0.545 OA
ATOM     21  O   UNL     1      45.220  47.456  19.114  1.00  0.00    -0.545 OA
ENDBRANCH  17  19
ENDBRANCH  10  12
ENDBRANCH   9  10
ENDBRANCH   1   9
TORSDOF 8
ENDMDL
MODEL 2
REMARK VINA RESULT:    -6.471      1.747      2.702
REMARK INTER + INTRA:          -9.856
REMARK INTER:                  -9.119
REMARK INTRA:                  -0.737
REMARK UNBOUND:                -0.358
REMARK SMILES COCC[NH+](C)CCNc1ccc(C(=O)[O-])cc1Cl
REMARK SMILES IDX 7 1 5 2 6 3 4 5 3 6 2 7 1 8 8 9 9 10 10 12 11 13 18 14 12 15
REMARK SMILES IDX 17 16 13 17 19 18 14 19 15 20 16 21
REMARK H PARENT 5 4 9 11
ROOT
ATOM      1  C   UNL     1      51.265  53.579  18.843  1.00  0.00    +0.283 C 
ENDROOT
BRANCH   1   2
ATOM      2  N   UNL     1      51.822  53.623  20.268  1.00  0.00    -0.334 N 
ATOM      3  C   UNL     1      52.009  55.018  20.782  1.00  0.00    +0.332 C 
ATOM      4  H   UNL     1      52.780  53.242  20.123  1.00  0.00    +0.348 HD
BRANCH   2   5
ATOM      5  C   UNL     1      51.126  52.687  21.213  1.00  0.00    +0.290 C 
BRANCH   5   6
ATOM      6  C   UNL     1      51.977  51.455  21.545  1.00  0.00    +0.221 C 
BRANCH   6   7
ATOM      7  O   UNL     1      51.669  50.394  20.640  1.00  0.00    -0.379 OA
ATOM      8  C   UNL     1      52.766  50.035  19.807  1.00  0.00    +0.195 C 
ENDBRANCH   6   7
ENDBRANCH   5   6
ENDBRANCH   2   5
ENDBRANCH   1   2
BRANCH   1   9
ATOM      9  C   UNL     1      49.929  52.787  18.852  1.00  0.00    +0.174 C 
BRANCH   9  10
ATOM     10  N   UNL     1      50.062  51.578  18.030  1.00  0.00    -0.378 N 
ATOM     11  H   UNL     1      50.962  51.092  18.109  1.00  0.00    +0.160 HD
BRANCH  10  12
ATOM     12  C   UNL     1      49.029  50.625  17.919  1.00  0.00    +0.053 A 
ATOM     13  C   UNL     1      48.982  49.466  18.700  1.00  0.00    +0.028 A 
ATOM     14  C   UNL     1      47.905  50.922  17.111  1.00  0.00    +0.064 A 
ATOM     15  C   UNL     1      47.830  48.681  18.743  1.00  0.00    +0.012 A 
ATOM     16  C   UNL     1      46.756  50.138  17.154  1.00  0.00    +0.032 A 
ATOM     17  C   UNL     1      46.691  49.025  18.003  1.00  0.00    -0.001 A 
ATOM     18 Cl   UNL     1      47.890  52.353  16.134  1.00  0.00    -0.082 Cl
BRANCH  17  19
ATOM     19  C   UNL     1      45.410  48.235  18.151  1.00  0.00    +0.072 C 
ATOM     20  O   UNL     1      44.470  48.520  17.351  1.00  0.00    -0.545 OA
ATOM     21  O   UNL     1      45.378  47.384  19.092  1.00  0.00    -0.545 OA
ENDBRANCH  17  19
ENDBRANCH  10  12
ENDBRANCH   9  10
ENDBRANCH   1   9
TORSDOF 8
ENDMDL
MODEL 3
REMARK VINA RESULT:    -6.232      1.763      2.341
REMARK INTER + INTRA:          -9.505
REMARK INTER:                  -8.969
REMARK INTRA:                  -0.536
REMARK UNBOUND:                -0.358
REMARK SMILES COCC[NH+](C)CCNc1ccc(C(=O)[O-])cc1Cl
REMARK SMILES IDX 7 1 5 2 6 3 4 5 3 6 2 7 1 8 8 9 9 10 10 12 11 13 18 14 12 15
REMARK SMILES IDX 17 16 13 17 19 18 14 19 15 20 16 21
REMARK H PARENT 5 4 9 11
ROOT
ATOM      1  C   UNL     1      52.194  52.192  19.846  1.00  0.00    +0.283 C 
ENDROOT
BRANCH   1   2
ATOM      2  N   UNL     1      51.582  53.550  20.197  1.00  0.00    -0.334 N 
ATOM      3  C   UNL     1      50.251  53.779  19.548  1.00  0.00    +0.332 C 
ATOM      4  H   UNL     1      52.245  54.200  19.724  1.00  0.00    +0.348 HD
BRANCH   2   5
ATOM      5  C   UNL     1      51.635  53.872  21.662  1.00  0.00    +0.290 C 
BRANCH   5   6
ATOM      6  C   UNL     1      51.572  55.381  21.930  1.00  0.00    +0.221 C 
BRANCH   6   7
ATOM      7  O   UNL     1      52.658  56.037  21.276  1.00  0.00    -0.379 OA
ATOM      8  C   UNL     1      52.903  57.346  21.777  1.00  0.00    +0.195 C 
ENDBRANCH   6   7
ENDBRANCH   5   6
ENDBRANCH   2   5
ENDBRANCH   1   2
BRANCH   1   9
ATOM      9  C   UNL     1      51.955  51.910  18.337  1.00  0.00    +0.174 C 
BRANCH   9  10
ATOM     10  N   UNL     1      51.418  50.555  18.164  1.00  0.00    -0.378 N 
ATOM     11  H   UNL     1      51.940  49.813  18.645  1.00  0.00    +0.160 HD
BRANCH  10  12
ATOM     12  C   UNL     1      50.038  50.275  18.241  1.00  0.00    +0.053 A 
ATOM     13  C   UNL     1      49.107  50.812  17.347  1.00  0.00    +0.028 A 
ATOM     14  C   UNL     1      49.588  49.285  19.146  1.00  0.00    +0.064 A 
ATOM     15  C   UNL     1      47.802  50.322  17.296  1.00  0.00    +0.012 A 
ATOM     16  C   UNL     1      48.286  48.796  19.096  1.00  0.00    +0.032 A 
ATOM     17  C   UNL     1      47.385  49.285  18.140  1.00  0.00    -0.001 A 
ATOM     18 Cl   UNL     1      50.695  48.564  20.268  1.00  0.00    -0.082 Cl
BRANCH  17  19
ATOM     19  C   UNL     1      46.006  48.681  17.993  1.00  0.00    +0.072 C 
ATOM     20  O   UNL     1      45.695  47.765  18.812  1.00  0.00    -0.545 OA
ATOM     21  O   UNL     1      45.299  49.117  17.034  1.00  0.00    -0.545 OA
ENDBRANCH  17  19
ENDBRANCH  10  12
ENDBRANCH   9  10
ENDBRANCH   1   9
TORSDOF 8
ENDMDL
MODEL 4
REMARK VINA RESULT:    -5.958      2.064      2.751
REMARK INTER + INTRA:          -9.103
REMARK INTER:                  -8.702
REMARK INTRA:                  -0.401
REMARK UNBOUND:                -0.358
REMARK SMILES COCC[NH+](C)CCNc1ccc(C(=O)[O-])cc1Cl
REMARK SMILES IDX 7 1 5 2 6 3 4 5 3 6 2 7 1 8 8 9 9 10 10 12 11 13 18 14 12 15
REMARK SMILES IDX 17 16 13 17 19 18 14 19 15 20 16 21
REMARK H PARENT 5 4 9 11
ROOT
ATOM      1  C   UNL     1      50.210  52.641  18.527  1.00  0.00    +0.283 C 
ENDROOT
BRANCH   1   2
ATOM      2  N   UNL     1      50.846  54.014  18.756  1.00  0.00    -0.334 N 
ATOM      3  C   UNL     1      49.839  55.092  19.015  1.00  0.00    +0.332 C 
ATOM      4  H   UNL     1      51.241  54.214  17.813  1.00  0.00    +0.348 HD
BRANCH   2   5
ATOM      5  C   UNL     1      52.005  53.987  19.710  1.00  0.00    +0.290 C 
BRANCH   5   6
ATOM      6  C   UNL     1      51.937  55.118  20.742  1.00  0.00    +0.221 C 
BRANCH   6   7
ATOM      7  O   UNL     1      51.974  54.575  22.062  1.00  0.00    -0.379 OA
ATOM      8  C   UNL     1      51.614  53.199  22.109  1.00  0.00    +0.195 C 
ENDBRANCH   6   7
ENDBRANCH   5   6
ENDBRANCH   2   5
ENDBRANCH   1   2
BRANCH   1   9
ATOM      9  C   UNL     1      49.083  52.782  17.467  1.00  0.00    +0.174 C 
BRANCH   9  10
ATOM     10  N   UNL     1      49.205  51.714  16.467  1.00  0.00    -0.378 N 
ATOM     11  H   UNL     1      50.159  51.372  16.306  1.00  0.00    +0.160 HD
BRANCH  10  12
ATOM     12  C   UNL     1      48.308  50.627  16.412  1.00  0.00    +0.053 A 
ATOM     13  C   UNL     1      47.167  50.546  17.217  1.00  0.00    +0.028 A 
ATOM     14  C   UNL     1      48.466  49.658  15.393  1.00  0.00    +0.064 A 
ATOM     15  C   UNL     1      46.180  49.594  16.961  1.00  0.00    +0.012 A 
ATOM     16  C   UNL     1      47.481  48.708  15.139  1.00  0.00    +0.032 A 
ATOM     17  C   UNL     1      46.305  48.689  15.899  1.00  0.00    -0.001 A 
ATOM     18 Cl   UNL     1      49.848  49.712  14.348  1.00  0.00    -0.082 Cl
BRANCH  17  19
ATOM     19  C   UNL     1      45.175  47.743  15.558  1.00  0.00    +0.072 C 
ATOM     20  O   UNL     1      44.147  47.795  16.297  1.00  0.00    -0.545 OA
ATOM     21  O   UNL     1      45.376  46.952  14.587  1.00  0.00    -0.545 OA
ENDBRANCH  17  19
ENDBRANCH  10  12
ENDBRANCH   9  10
ENDBRANCH   1   9
TORSDOF 8
ENDMDL
MODEL 5
REMARK VINA RESULT:    -5.489      2.216      2.438
REMARK INTER + INTRA:          -8.415
REMARK INTER:                  -8.064
REMARK INTRA:                  -0.351
REMARK UNBOUND:                -0.358
REMARK SMILES COCC[NH+](C)CCNc1ccc(C(=O)[O-])cc1Cl
REMARK SMILES IDX 7 1 5 2 6 3 4 5 3 6 2 7 1 8 8 9 9 10 10 12 11 13 18 14 12 15
REMARK SMILES IDX 17 16 13 17 19 18 14 19 15 20 16 21
REMARK H PARENT 5 4 9 11
ROOT
ATOM      1  C   UNL     1      50.859  54.448  19.378  1.00  0.00    +0.283 C 
ENDROOT
BRANCH   1   2
ATOM      2  N   UNL     1      50.601  55.197  20.687  1.00  0.00    -0.334 N 
ATOM      3  C   UNL     1      51.860  55.564  21.411  1.00  0.00    +0.332 C 
ATOM      4  H   UNL     1      50.149  54.454  21.261  1.00  0.00    +0.348 HD
BRANCH   2   5
ATOM      5  C   UNL     1      49.600  56.308  20.556  1.00  0.00    +0.290 C 
BRANCH   5   6
ATOM      6  C   UNL     1      49.071  56.449  19.123  1.00  0.00    +0.221 C 
BRANCH   6   7
ATOM      7  O   UNL     1      47.877  57.231  19.121  1.00  0.00    -0.379 OA
ATOM      8  C   UNL     1      48.031  58.488  19.770  1.00  0.00    +0.195 C 
ENDBRANCH   6   7
ENDBRANCH   5   6
ENDBRANCH   2   5
ENDBRANCH   1   2
BRANCH   1   9
ATOM      9  C   UNL     1      50.286  53.009  19.503  1.00  0.00    +0.174 C 
BRANCH   9  10
ATOM     10  N   UNL     1      49.972  52.481  18.170  1.00  0.00    -0.378 N 
ATOM     11  H   UNL     1      50.737  52.530  17.488  1.00  0.00    +0.160 HD
BRANCH  10  12
ATOM     12  C   UNL     1      49.262  51.277  17.985  1.00  0.00    +0.053 A 
ATOM     13  C   UNL     1      49.622  50.082  18.614  1.00  0.00    +0.028 A 
ATOM     14  C   UNL     1      48.040  51.305  17.270  1.00  0.00    +0.064 A 
ATOM     15  C   UNL     1      48.760  48.985  18.608  1.00  0.00    +0.012 A 
ATOM     16  C   UNL     1      47.181  50.209  17.263  1.00  0.00    +0.032 A 
ATOM     17  C   UNL     1      47.516  49.045  17.967  1.00  0.00    -0.001 A 
ATOM     18 Cl   UNL     1      47.525  52.760  16.483  1.00  0.00    -0.082 Cl
BRANCH  17  19
ATOM     19  C   UNL     1      46.542  47.892  18.069  1.00  0.00    +0.072 C 
ATOM     20  O   UNL     1      46.471  47.117  17.070  1.00  0.00    -0.545 OA
ATOM     21  O   UNL     1      45.853  47.830  19.132  1.00  0.00    -0.545 OA
ENDBRANCH  17  19
ENDBRANCH  10  12
ENDBRANCH   9  10
ENDBRANCH   1   9
TORSDOF 8
ENDMDL
