MODEL 1
REMARK VINA RESULT:    -7.164      0.000      0.000
REMARK INTER + INTRA:         -10.029
REMARK INTER:                  -8.840
REMARK INTRA:                  -1.189
REMARK UNBOUND:                -1.189
REMARK SMILES CC[C@@]1(C(=O)Nc2ccc(C(=O)[O-])c(C)c2)CCC[NH2+]C1
REMARK SMILES IDX 4 1 5 2 6 3 3 5 17 6 21 7 18 8 20 9 19 10 2 13 1 14 7 15
REMARK SMILES IDX 8 16 16 17 9 18 14 19 10 20 15 21 11 22 12 23 13 24
REMARK H PARENT 6 4 20 11 20 12
ROOT
ATOM      1  C   UNL     1      46.361  49.424  17.079  1.00  0.00    +0.236 C 
ATOM      2  O   UNL     1      45.378  50.095  17.385  1.00  0.00    -0.274 OA
ATOM      3  N   UNL     1      47.103  49.704  15.928  1.00  0.00    -0.325 N 
ATOM      4  H   UNL     1      47.388  48.904  15.380  1.00  0.00    +0.169 HD
ENDROOT
BRANCH   1   5
ATOM      5  C   UNL     1      46.874  48.268  18.003  1.00  0.00    +0.098 C 
ATOM      6  C   UNL     1      47.556  47.179  17.131  1.00  0.00    +0.028 C 
ATOM      7  C   UNL     1      45.748  47.558  18.803  1.00  0.00    +0.277 C 
ATOM      8  C   UNL     1      46.593  46.288  16.326  1.00  0.00    +0.063 C 
ATOM      9  N   UNL     1      44.802  46.727  17.989  1.00  0.00    -0.345 N 
ATOM     10  C   UNL     1      45.098  46.551  16.547  1.00  0.00    +0.260 C 
ATOM     11  H   UNL     1      44.686  45.809  18.420  1.00  0.00    +0.346 HD
ATOM     12  H   UNL     1      43.838  47.113  18.090  1.00  0.00    +0.346 HD
BRANCH   5  13
ATOM     13  C   UNL     1      47.916  48.924  18.970  1.00  0.00    +0.019 C 
ATOM     14  C   UNL     1      49.343  48.380  18.949  1.00  0.00    +0.005 C 
ENDBRANCH   5  13
ENDBRANCH   1   5
BRANCH   3  15
ATOM     15  C   UNL     1      48.172  50.627  16.120  1.00  0.00    +0.041 A 
ATOM     16  C   UNL     1      49.485  50.167  15.942  1.00  0.00    +0.027 A 
ATOM     17  C   UNL     1      47.930  51.852  16.747  1.00  0.00    +0.030 A 
ATOM     18  C   UNL     1      50.505  50.770  16.670  1.00  0.00    +0.012 A 
ATOM     19  C   UNL     1      48.937  52.480  17.455  1.00  0.00    -0.040 A 
ATOM     20  C   UNL     1      50.207  51.848  17.517  1.00  0.00    +0.000 A 
ATOM     21  C   UNL     1      48.647  53.730  18.241  1.00  0.00    +0.045 C 
BRANCH  20  22
ATOM     22  C   UNL     1      51.233  52.207  18.584  1.00  0.00    +0.072 C 
ATOM     23  O   UNL     1      52.169  53.020  18.254  1.00  0.00    -0.545 OA
ATOM     24  O   UNL     1      51.095  51.547  19.690  1.00  0.00    -0.545 OA
ENDBRANCH  20  22
ENDBRANCH   3  15
TORSDOF 4
ENDMDL
MODEL 2
REMARK VINA RESULT:    -7.152      4.161      7.634
REMARK INTER + INTRA:         -10.014
REMARK INTER:                  -9.037
REMARK INTRA:                  -0.977
REMARK UNBOUND:                -1.189
REMARK SMILES CC[C@@]1(C(=O)Nc2ccc(C(=O)[O-])c(C)c2)CCC[NH2+]C1
REMARK SMILES IDX 4 1 5 2 6 3 3 5 17 6 21 7 18 8 20 9 19 10 2 13 1 14 7 15
REMARK SMILES IDX 8 16 16 17 9 18 14 19 10 20 15 21 11 22 12 23 13 24
REMARK H PARENT 6 4 20 11 20 12
ROOT
ATOM      1  C   UNL     1      51.891  54.840  20.031  1.00  0.00    +0.236 C 
ATOM      2  O   UNL     1      53.114  54.898  20.138  1.00  0.00    -0.274 OA
ATOM      3  N   UNL     1      51.278  54.665  18.787  1.00  0.00    -0.325 N 
ATOM      4  H   UNL     1      50.461  55.234  18.613  1.00  0.00    +0.169 HD
ENDROOT
BRANCH   1   5
ATOM      5  C   UNL     1      50.963  54.888  21.292  1.00  0.00    +0.098 C 
ATOM      6  C   UNL     1      49.734  55.787  20.988  1.00  0.00    +0.028 C 
ATOM      7  C   UNL     1      51.649  55.481  22.553  1.00  0.00    +0.277 C 
ATOM      8  C   UNL     1      50.016  57.300  20.974  1.00  0.00    +0.063 C 
ATOM      9  N   UNL     1      51.947  56.949  22.497  1.00  0.00    -0.345 N 
ATOM     10  C   UNL     1      51.450  57.714  21.328  1.00  0.00    +0.260 C 
ATOM     11  H   UNL     1      51.624  57.403  23.353  1.00  0.00    +0.346 HD
ATOM     12  H   UNL     1      52.977  57.090  22.578  1.00  0.00    +0.346 HD
BRANCH   5  13
ATOM     13  C   UNL     1      50.510  53.412  21.545  1.00  0.00    +0.019 C 
ATOM     14  C   UNL     1      51.541  52.442  22.118  1.00  0.00    +0.005 C 
ENDBRANCH   5  13
ENDBRANCH   1   5
BRANCH   3  15
ATOM     15  C   UNL     1      51.069  53.305  18.414  1.00  0.00    +0.041 A 
ATOM     16  C   UNL     1      49.760  52.887  18.137  1.00  0.00    +0.027 A 
ATOM     17  C   UNL     1      52.086  52.366  18.609  1.00  0.00    +0.030 A 
ATOM     18  C   UNL     1      49.421  51.560  18.376  1.00  0.00    +0.012 A 
ATOM     19  C   UNL     1      51.771  51.038  18.824  1.00  0.00    -0.040 A 
ATOM     20  C   UNL     1      50.401  50.667  18.834  1.00  0.00    +0.000 A 
ATOM     21  C   UNL     1      52.852  50.047  19.165  1.00  0.00    +0.045 C 
BRANCH  20  22
ATOM     22  C   UNL     1      49.924  49.366  19.467  1.00  0.00    +0.072 C 
ATOM     23  O   UNL     1      50.165  49.194  20.716  1.00  0.00    -0.545 OA
ATOM     24  O   UNL     1      49.418  48.523  18.624  1.00  0.00    -0.545 OA
ENDBRANCH  20  22
ENDBRANCH   3  15
TORSDOF 4
ENDMDL
MODEL 3
REMARK VINA RESULT:    -6.938      4.392      6.442
REMARK INTER + INTRA:          -9.750
REMARK INTER:                  -9.407
REMARK INTRA:                  -0.343
REMARK UNBOUND:                -1.189
REMARK SMILES CC[C@@]1(C(=O)Nc2ccc(C(=O)[O-])c(C)c2)CCC[NH2+]C1
REMARK SMILES IDX 4 1 5 2 6 3 3 5 17 6 21 7 18 8 20 9 19 10 2 13 1 14 7 15
REMARK SMILES IDX 8 16 16 17 9 18 14 19 10 20 15 21 11 22 12 23 13 24
REMARK H PARENT 6 4 20 11 20 12
ROOT
ATOM      1  C   UNL     1      51.480  51.621  20.937  1.00  0.00    +0.236 C 
ATOM      2  O   UNL     1      52.380  51.409  21.747  1.00  0.00    -0.274 OA
ATOM      3  N   UNL     1      50.396  52.444  21.255  1.00  0.00    -0.325 N 
ATOM      4  H   UNL     1      49.488  52.111  20.961  1.00  0.00    +0.169 HD
ENDROOT
BRANCH   1   5
ATOM      5  C   UNL     1      51.542  51.038  19.485  1.00  0.00    +0.098 C 
ATOM      6  C   UNL     1      50.167  50.409  19.127  1.00  0.00    +0.028 C 
ATOM      7  C   UNL     1      52.604  49.920  19.302  1.00  0.00    +0.277 C 
ATOM      8  C   UNL     1      49.871  49.058  19.800  1.00  0.00    +0.063 C 
ATOM      9  N   UNL     1      52.309  48.626  19.999  1.00  0.00    -0.345 N 
ATOM     10  C   UNL     1      50.995  48.486  20.673  1.00  0.00    +0.260 C 
ATOM     11  H   UNL     1      52.437  47.845  19.354  1.00  0.00    +0.346 HD
ATOM     12  H   UNL     1      53.065  48.433  20.692  1.00  0.00    +0.346 HD
BRANCH   5  13
ATOM     13  C   UNL     1      51.845  52.255  18.547  1.00  0.00    +0.019 C 
ATOM     14  C   UNL     1      53.174  52.982  18.738  1.00  0.00    +0.005 C 
ENDBRANCH   5  13
ENDBRANCH   1   5
BRANCH   3  15
ATOM     15  C   UNL     1      50.585  53.822  20.944  1.00  0.00    +0.041 A 
ATOM     16  C   UNL     1      51.517  54.550  21.697  1.00  0.00    +0.027 A 
ATOM     17  C   UNL     1      49.666  54.483  20.124  1.00  0.00    +0.030 A 
ATOM     18  C   UNL     1      51.311  55.914  21.871  1.00  0.00    +0.012 A 
ATOM     19  C   UNL     1      49.464  55.843  20.265  1.00  0.00    -0.040 A 
ATOM     20  C   UNL     1      50.215  56.534  21.251  1.00  0.00    +0.000 A 
ATOM     21  C   UNL     1      48.384  56.535  19.478  1.00  0.00    +0.045 C 
BRANCH  20  22
ATOM     22  C   UNL     1      49.787  57.897  21.781  1.00  0.00    +0.072 C 
ATOM     23  O   UNL     1      48.548  58.053  22.073  1.00  0.00    -0.545 OA
ATOM     24  O   UNL     1      50.728  58.786  21.768  1.00  0.00    -0.545 OA
ENDBRANCH  20  22
ENDBRANCH   3  15
TORSDOF 4
ENDMDL
MODEL 4
REMARK VINA RESULT:    -6.870      3.926      7.481
REMARK INTER + INTRA:          -9.665
REMARK INTER:                  -8.555
REMARK INTRA:                  -1.110
REMARK UNBOUND:                -1.189
REMARK SMILES CC[C@@]1(C(=O)Nc2ccc(C(=O)[O-])c(C)c2)CCC[NH2+]C1
REMARK SMILES IDX 4 1 5 2 6 3 3 5 17 6 21 7 18 8 20 9 19 10 2 13 1 14 7 15
REMARK SMILES IDX 8 16 16 17 9 18 14 19 10 20 15 21 11 22 12 23 13 24
REMARK H PARENT 6 4 20 11 20 12
ROOT
ATOM      1  C   UNL     1      51.674  53.722  21.102  1.00  0.00    +0.236 C 
ATOM      2  O   UNL     1      51.599  53.479  22.304  1.00  0.00    -0.274 OA
ATOM      3  N   UNL     1      52.621  53.090  20.291  1.00  0.00    -0.325 N 
ATOM      4  H   UNL     1      53.094  53.682  19.621  1.00  0.00    +0.169 HD
ENDROOT
BRANCH   1   5
ATOM      5  C   UNL     1      50.665  54.697  20.407  1.00  0.00    +0.098 C 
ATOM      6  C   UNL     1      51.368  55.394  19.211  1.00  0.00    +0.028 C 
ATOM      7  C   UNL     1      50.142  55.825  21.336  1.00  0.00    +0.277 C 
ATOM      8  C   UNL     1      52.373  56.495  19.593  1.00  0.00    +0.063 C 
ATOM      9  N   UNL     1      51.151  56.864  21.724  1.00  0.00    -0.345 N 
ATOM     10  C   UNL     1      52.491  56.799  21.092  1.00  0.00    +0.260 C 
ATOM     11  H   UNL     1      50.762  57.798  21.584  1.00  0.00    +0.346 HD
ATOM     12  H   UNL     1      51.267  56.855  22.761  1.00  0.00    +0.346 HD
BRANCH   5  13
ATOM     13  C   UNL     1      49.486  53.801  19.899  1.00  0.00    +0.019 C 
ATOM     14  C   UNL     1      48.966  54.048  18.485  1.00  0.00    +0.005 C 
ENDBRANCH   5  13
ENDBRANCH   1   5
BRANCH   3  15
ATOM     15  C   UNL     1      52.181  51.867  19.705  1.00  0.00    +0.041 A 
ATOM     16  C   UNL     1      51.940  51.843  18.324  1.00  0.00    +0.027 A 
ATOM     17  C   UNL     1      51.727  50.828  20.522  1.00  0.00    +0.030 A 
ATOM     18  C   UNL     1      50.983  50.961  17.833  1.00  0.00    +0.012 A 
ATOM     19  C   UNL     1      50.795  49.927  20.045  1.00  0.00    -0.040 A 
ATOM     20  C   UNL     1      50.327  50.089  18.714  1.00  0.00    +0.000 A 
ATOM     21  C   UNL     1      50.205  48.888  20.961  1.00  0.00    +0.045 C 
BRANCH  20  22
ATOM     22  C   UNL     1      49.030  49.450  18.235  1.00  0.00    +0.072 C 
ATOM     23  O   UNL     1      49.052  48.195  17.971  1.00  0.00    -0.545 OA
ATOM     24  O   UNL     1      48.067  50.294  18.042  1.00  0.00    -0.545 OA
ENDBRANCH  20  22
ENDBRANCH   3  15
TORSDOF 4
ENDMDL
MODEL 5
REMARK VINA RESULT:    -6.794      4.314      7.874
REMARK INTER + INTRA:          -9.572
REMARK INTER:                  -9.192
REMARK INTRA:                  -0.381
REMARK UNBOUND:                -1.189
REMARK SMILES CC[C@@]1(C(=O)Nc2ccc(C(=O)[O-])c(C)c2)CCC[NH2+]C1
REMARK SMILES IDX 4 1 5 2 6 3 3 5 17 6 21 7 18 8 20 9 19 10 2 13 1 14 7 15
REMARK SMILES IDX 8 16 16 17 9 18 14 19 10 20 15 21 11 22 12 23 13 24
REMARK H PARENT 6 4 20 11 20 12
ROOT
ATOM      1  C   UNL     1      51.546  54.405  20.981  1.00  0.00    +0.236 C 
ATOM      2  O   UNL     1      51.917  53.936  22.055  1.00  0.00    -0.274 OA
ATOM      3  N   UNL     1      51.727  53.709  19.783  1.00  0.00    -0.325 N 
ATOM      4  H   UNL     1      52.045  54.259  18.996  1.00  0.00    +0.169 HD
ENDROOT
BRANCH   1   5
ATOM      5  C   UNL     1      50.788  55.774  20.913  1.00  0.00    +0.098 C 
ATOM      6  C   UNL     1      51.373  56.625  19.754  1.00  0.00    +0.028 C 
ATOM      7  C   UNL     1      50.917  56.627  22.203  1.00  0.00    +0.277 C 
ATOM      8  C   UNL     1      52.751  57.251  20.032  1.00  0.00    +0.063 C 
ATOM      9  N   UNL     1      52.280  57.194  22.470  1.00  0.00    -0.345 N 
ATOM     10  C   UNL     1      53.324  57.007  21.434  1.00  0.00    +0.260 C 
ATOM     11  H   UNL     1      52.207  58.188  22.694  1.00  0.00    +0.346 HD
ATOM     12  H   UNL     1      52.633  56.816  23.376  1.00  0.00    +0.346 HD
BRANCH   5  13
ATOM     13  C   UNL     1      49.290  55.419  20.627  1.00  0.00    +0.019 C 
ATOM     14  C   UNL     1      48.358  56.557  20.220  1.00  0.00    +0.005 C 
ENDBRANCH   5  13
ENDBRANCH   1   5
BRANCH   3  15
ATOM     15  C   UNL     1      50.650  52.845  19.429  1.00  0.00    +0.041 A 
ATOM     16  C   UNL     1      50.697  51.513  19.864  1.00  0.00    +0.027 A 
ATOM     17  C   UNL     1      49.740  53.236  18.443  1.00  0.00    +0.030 A 
ATOM     18  C   UNL     1      50.073  50.539  19.092  1.00  0.00    +0.012 A 
ATOM     19  C   UNL     1      49.091  52.283  17.681  1.00  0.00    -0.040 A 
ATOM     20  C   UNL     1      49.372  50.916  17.937  1.00  0.00    +0.000 A 
ATOM     21  C   UNL     1      48.211  52.699  16.533  1.00  0.00    +0.045 C 
BRANCH  20  22
ATOM     22  C   UNL     1      49.065  49.827  16.916  1.00  0.00    +0.072 C 
ATOM     23  O   UNL     1      49.814  49.764  15.877  1.00  0.00    -0.545 OA
ATOM     24  O   UNL     1      47.991  49.150  17.175  1.00  0.00    -0.545 OA
ENDBRANCH  20  22
ENDBRANCH   3  15
TORSDOF 4
ENDMDL
