MODEL 1
REMARK VINA RESULT:    -7.159      0.000      0.000
REMARK INTER + INTRA:          -9.947
REMARK INTER:                  -9.879
REMARK INTRA:                  -0.068
REMARK UNBOUND:                -0.068
REMARK SMILES CCC[C@](C)([NH3+])C(=O)N1CCC[C@@](CC)(C(=O)[O-])C1
REMARK SMILES IDX 7 1 8 2 4 3 5 4 3 5 2 6 1 7 6 8 9 12 10 13 19 14 11 15 13 16
REMARK SMILES IDX 12 17 14 18 15 19 16 20 17 21 18 22
REMARK H PARENT 6 9 6 10 6 11
ROOT
ATOM      1  C   UNL     1      51.421  50.636  18.625  1.00  0.00    +0.283 C 
ATOM      2  O   UNL     1      52.310  50.796  17.781  1.00  0.00    -0.268 OA
ENDROOT
BRANCH   1   3
ATOM      3  C   UNL     1      51.792  49.970  20.007  1.00  0.00    +0.171 C 
ATOM      4  C   UNL     1      50.578  49.312  20.676  1.00  0.00    +0.090 C 
BRANCH   3   5
ATOM      5  C   UNL     1      52.382  51.069  20.942  1.00  0.00    +0.078 C 
BRANCH   5   6
ATOM      6  C   UNL     1      51.367  51.971  21.661  1.00  0.00    +0.004 C 
ATOM      7  C   UNL     1      51.657  53.442  21.393  1.00  0.00    +0.004 C 
ENDBRANCH   5   6
ENDBRANCH   3   5
BRANCH   3   8
ATOM      8  N   UNL     1      52.880  48.964  19.815  1.00  0.00    -0.345 N 
ATOM      9  H   UNL     1      52.621  48.066  19.405  1.00  0.00    +0.345 HD
ATOM     10  H   UNL     1      53.630  49.318  19.156  1.00  0.00    +0.345 HD
ATOM     11  H   UNL     1      53.451  48.818  20.654  1.00  0.00    +0.345 HD
ENDBRANCH   3   8
ENDBRANCH   1   3
BRANCH   1  12
ATOM     12  N   UNL     1      50.098  50.956  18.326  1.00  0.00    -0.336 N 
ATOM     13  C   UNL     1      49.710  52.365  18.377  1.00  0.00    +0.120 C 
ATOM     14  C   UNL     1      48.953  50.026  18.326  1.00  0.00    +0.132 C 
ATOM     15  C   UNL     1      48.773  52.714  17.227  1.00  0.00    +0.023 C 
ATOM     16  C   UNL     1      47.935  50.308  17.212  1.00  0.00    +0.027 C 
ATOM     17  C   UNL     1      47.549  51.802  17.213  1.00  0.00    +0.017 C 
BRANCH  16  18
ATOM     18  C   UNL     1      46.640  49.465  17.381  1.00  0.00    +0.011 C 
ATOM     19  C   UNL     1      46.654  48.446  18.515  1.00  0.00    +0.005 C 
ENDBRANCH  16  18
BRANCH  16  20
ATOM     20  C   UNL     1      48.527  49.898  15.844  1.00  0.00    +0.049 C 
ATOM     21  O   UNL     1      48.191  50.578  14.845  1.00  0.00    -0.549 OA
ATOM     22  O   UNL     1      49.324  48.903  15.878  1.00  0.00    -0.549 OA
ENDBRANCH  16  20
ENDBRANCH   1  12
TORSDOF 7
ENDMDL
MODEL 2
REMARK VINA RESULT:    -6.792      2.239      5.557
REMARK INTER + INTRA:          -9.441
REMARK INTER:                  -9.348
REMARK INTRA:                  -0.093
REMARK UNBOUND:                -0.068
REMARK SMILES CCC[C@](C)([NH3+])C(=O)N1CCC[C@@](CC)(C(=O)[O-])C1
REMARK SMILES IDX 7 1 8 2 4 3 5 4 3 5 2 6 1 7 6 8 9 12 10 13 19 14 11 15 13 16
REMARK SMILES IDX 12 17 14 18 15 19 16 20 17 21 18 22
REMARK H PARENT 6 9 6 10 6 11
ROOT
ATOM      1  C   UNL     1      50.941  51.266  18.358  1.00  0.00    +0.283 C 
ATOM      2  O   UNL     1      52.043  51.161  17.809  1.00  0.00    -0.268 OA
ENDROOT
BRANCH   1   3
ATOM      3  C   UNL     1      49.687  50.578  17.691  1.00  0.00    +0.171 C 
ATOM      4  C   UNL     1      48.608  51.595  17.298  1.00  0.00    +0.090 C 
BRANCH   3   5
ATOM      5  C   UNL     1      49.098  49.542  18.697  1.00  0.00    +0.078 C 
BRANCH   5   6
ATOM      6  C   UNL     1      48.229  48.426  18.096  1.00  0.00    +0.004 C 
ATOM      7  C   UNL     1      46.806  48.492  18.637  1.00  0.00    +0.004 C 
ENDBRANCH   5   6
ENDBRANCH   3   5
BRANCH   3   8
ATOM      8  N   UNL     1      50.111  49.792  16.492  1.00  0.00    -0.345 N 
ATOM      9  H   UNL     1      49.485  49.792  15.687  1.00  0.00    +0.345 HD
ATOM     10  H   UNL     1      51.020  50.157  16.086  1.00  0.00    +0.345 HD
ATOM     11  H   UNL     1      50.401  48.835  16.715  1.00  0.00    +0.345 HD
ENDBRANCH   3   8
ENDBRANCH   1   3
BRANCH   1  12
ATOM     12  N   UNL     1      50.792  52.054  19.498  1.00  0.00    -0.336 N 
ATOM     13  C   UNL     1      50.999  51.417  20.798  1.00  0.00    +0.120 C 
ATOM     14  C   UNL     1      50.093  53.350  19.579  1.00  0.00    +0.132 C 
ATOM     15  C   UNL     1      51.754  52.343  21.744  1.00  0.00    +0.023 C 
ATOM     16  C   UNL     1      50.766  54.351  20.528  1.00  0.00    +0.027 C 
ATOM     17  C   UNL     1      51.043  53.685  21.891  1.00  0.00    +0.017 C 
BRANCH  16  18
ATOM     18  C   UNL     1      49.886  55.610  20.765  1.00  0.00    +0.011 C 
ATOM     19  C   UNL     1      48.574  55.659  19.989  1.00  0.00    +0.005 C 
ENDBRANCH  16  18
BRANCH  16  20
ATOM     20  C   UNL     1      52.080  54.870  19.897  1.00  0.00    +0.049 C 
ATOM     21  O   UNL     1      52.328  54.520  18.718  1.00  0.00    -0.549 OA
ATOM     22  O   UNL     1      52.776  55.628  20.649  1.00  0.00    -0.549 OA
ENDBRANCH  16  20
ENDBRANCH   1  12
TORSDOF 7
ENDMDL
MODEL 3
REMARK VINA RESULT:    -6.693      1.821      5.479
REMARK INTER + INTRA:          -9.304
REMARK INTER:                  -8.587
REMARK INTRA:                  -0.717
REMARK UNBOUND:                -0.068
REMARK SMILES CCC[C@](C)([NH3+])C(=O)N1CCC[C@@](CC)(C(=O)[O-])C1
REMARK SMILES IDX 7 1 8 2 4 3 5 4 3 5 2 6 1 7 6 8 9 12 10 13 19 14 11 15 13 16
REMARK SMILES IDX 12 17 14 18 15 19 16 20 17 21 18 22
REMARK H PARENT 6 9 6 10 6 11
ROOT
ATOM      1  C   UNL     1      48.914  50.707  16.485  1.00  0.00    +0.283 C 
ATOM      2  O   UNL     1      47.970  51.452  16.203  1.00  0.00    -0.268 OA
ENDROOT
BRANCH   1   3
ATOM      3  C   UNL     1      49.491  49.749  15.371  1.00  0.00    +0.171 C 
ATOM      4  C   UNL     1      48.925  50.069  13.981  1.00  0.00    +0.090 C 
BRANCH   3   5
ATOM      5  C   UNL     1      49.147  48.278  15.758  1.00  0.00    +0.078 C 
BRANCH   5   6
ATOM      6  C   UNL     1      47.669  47.871  15.642  1.00  0.00    +0.004 C 
ATOM      7  C   UNL     1      47.325  46.774  16.641  1.00  0.00    +0.004 C 
ENDBRANCH   5   6
ENDBRANCH   3   5
BRANCH   3   8
ATOM      8  N   UNL     1      50.983  49.830  15.347  1.00  0.00    -0.345 N 
ATOM      9  H   UNL     1      51.400  50.754  15.237  1.00  0.00    +0.345 HD
ATOM     10  H   UNL     1      51.409  49.485  16.255  1.00  0.00    +0.345 HD
ATOM     11  H   UNL     1      51.416  49.166  14.698  1.00  0.00    +0.345 HD
ENDBRANCH   3   8
ENDBRANCH   1   3
BRANCH   1  12
ATOM     12  N   UNL     1      49.403  50.650  17.789  1.00  0.00    -0.336 N 
ATOM     13  C   UNL     1      48.856  49.623  18.676  1.00  0.00    +0.120 C 
ATOM     14  C   UNL     1      50.127  51.720  18.499  1.00  0.00    +0.132 C 
ATOM     15  C   UNL     1      49.952  49.008  19.538  1.00  0.00    +0.023 C 
ATOM     16  C   UNL     1      51.243  51.201  19.416  1.00  0.00    +0.027 C 
ATOM     17  C   UNL     1      50.703  50.078  20.325  1.00  0.00    +0.017 C 
BRANCH  16  18
ATOM     18  C   UNL     1      51.828  52.326  20.315  1.00  0.00    +0.011 C 
ATOM     19  C   UNL     1      51.483  52.237  21.798  1.00  0.00    +0.005 C 
ENDBRANCH  16  18
BRANCH  16  20
ATOM     20  C   UNL     1      52.427  50.690  18.562  1.00  0.00    +0.049 C 
ATOM     21  O   UNL     1      52.580  51.201  17.426  1.00  0.00    -0.549 OA
ATOM     22  O   UNL     1      53.148  49.798  19.119  1.00  0.00    -0.549 OA
ENDBRANCH  16  20
ENDBRANCH   1  12
TORSDOF 7
ENDMDL
MODEL 4
REMARK VINA RESULT:    -6.647      1.890      2.808
REMARK INTER + INTRA:          -9.241
REMARK INTER:                  -8.840
REMARK INTRA:                  -0.401
REMARK UNBOUND:                -0.068
REMARK SMILES CCC[C@](C)([NH3+])C(=O)N1CCC[C@@](CC)(C(=O)[O-])C1
REMARK SMILES IDX 7 1 8 2 4 3 5 4 3 5 2 6 1 7 6 8 9 12 10 13 19 14 11 15 13 16
REMARK SMILES IDX 12 17 14 18 15 19 16 20 17 21 18 22
REMARK H PARENT 6 9 6 10 6 11
ROOT
ATOM      1  C   UNL     1      49.474  51.780  17.619  1.00  0.00    +0.283 C 
ATOM      2  O   UNL     1      49.330  53.006  17.649  1.00  0.00    -0.268 OA
ENDROOT
BRANCH   1   3
ATOM      3  C   UNL     1      50.745  51.144  18.305  1.00  0.00    +0.171 C 
ATOM      4  C   UNL     1      50.397  49.895  19.125  1.00  0.00    +0.090 C 
BRANCH   3   5
ATOM      5  C   UNL     1      51.398  52.219  19.227  1.00  0.00    +0.078 C 
BRANCH   5   6
ATOM      6  C   UNL     1      51.997  51.711  20.548  1.00  0.00    +0.004 C 
ATOM      7  C   UNL     1      51.548  52.574  21.720  1.00  0.00    +0.004 C 
ENDBRANCH   5   6
ENDBRANCH   3   5
BRANCH   3   8
ATOM      8  N   UNL     1      51.772  50.809  17.272  1.00  0.00    -0.345 N 
ATOM      9  H   UNL     1      51.524  50.968  16.296  1.00  0.00    +0.345 HD
ATOM     10  H   UNL     1      52.652  51.389  17.391  1.00  0.00    +0.345 HD
ATOM     11  H   UNL     1      52.174  49.873  17.387  1.00  0.00    +0.345 HD
ENDBRANCH   3   8
ENDBRANCH   1   3
BRANCH   1  12
ATOM     12  N   UNL     1      48.578  50.980  16.912  1.00  0.00    -0.336 N 
ATOM     13  C   UNL     1      48.875  50.702  15.507  1.00  0.00    +0.120 C 
ATOM     14  C   UNL     1      47.184  50.684  17.292  1.00  0.00    +0.132 C 
ATOM     15  C   UNL     1      48.550  49.255  15.158  1.00  0.00    +0.023 C 
ATOM     16  C   UNL     1      46.751  49.249  16.961  1.00  0.00    +0.027 C 
ATOM     17  C   UNL     1      47.102  48.914  15.497  1.00  0.00    +0.017 C 
BRANCH  16  18
ATOM     18  C   UNL     1      45.224  49.042  17.161  1.00  0.00    +0.011 C 
ATOM     19  C   UNL     1      44.608  47.865  16.411  1.00  0.00    +0.005 C 
ENDBRANCH  16  18
BRANCH  16  20
ATOM     20  C   UNL     1      47.439  48.256  17.928  1.00  0.00    +0.049 C 
ATOM     21  O   UNL     1      48.157  47.362  17.419  1.00  0.00    -0.549 OA
ATOM     22  O   UNL     1      47.214  48.467  19.165  1.00  0.00    -0.549 OA
ENDBRANCH  16  20
ENDBRANCH   1  12
TORSDOF 7
ENDMDL
MODEL 5
REMARK VINA RESULT:    -6.608      3.381      5.373
REMARK INTER + INTRA:          -9.187
REMARK INTER:                  -9.122
REMARK INTRA:                  -0.066
REMARK UNBOUND:                -0.068
REMARK SMILES CCC[C@](C)([NH3+])C(=O)N1CCC[C@@](CC)(C(=O)[O-])C1
REMARK SMILES IDX 7 1 8 2 4 3 5 4 3 5 2 6 1 7 6 8 9 12 10 13 19 14 11 15 13 16
REMARK SMILES IDX 12 17 14 18 15 19 16 20 17 21 18 22
REMARK H PARENT 6 9 6 10 6 11
ROOT
ATOM      1  C   UNL     1      51.296  55.568  19.632  1.00  0.00    +0.283 C 
ATOM      2  O   UNL     1      51.986  56.080  18.745  1.00  0.00    -0.268 OA
ENDROOT
BRANCH   1   3
ATOM      3  C   UNL     1      50.981  56.403  20.933  1.00  0.00    +0.171 C 
ATOM      4  C   UNL     1      51.595  55.772  22.190  1.00  0.00    +0.090 C 
BRANCH   3   5
ATOM      5  C   UNL     1      49.433  56.505  21.093  1.00  0.00    +0.078 C 
BRANCH   5   6
ATOM      6  C   UNL     1      48.702  57.409  20.088  1.00  0.00    +0.004 C 
ATOM      7  C   UNL     1      47.421  57.971  20.690  1.00  0.00    +0.004 C 
ENDBRANCH   5   6
ENDBRANCH   3   5
BRANCH   3   8
ATOM      8  N   UNL     1      51.472  57.806  20.773  1.00  0.00    -0.345 N 
ATOM      9  H   UNL     1      50.773  58.549  20.771  1.00  0.00    +0.345 HD
ATOM     10  H   UNL     1      52.117  58.088  21.566  1.00  0.00    +0.345 HD
ATOM     11  H   UNL     1      52.117  57.923  19.985  1.00  0.00    +0.345 HD
ENDBRANCH   3   8
ENDBRANCH   1   3
BRANCH   1  12
ATOM     12  N   UNL     1      50.877  54.242  19.524  1.00  0.00    -0.336 N 
ATOM     13  C   UNL     1      49.528  53.994  19.017  1.00  0.00    +0.120 C 
ATOM     14  C   UNL     1      51.480  53.078  20.200  1.00  0.00    +0.132 C 
ATOM     15  C   UNL     1      49.513  52.796  18.075  1.00  0.00    +0.023 C 
ATOM     16  C   UNL     1      51.492  51.808  19.338  1.00  0.00    +0.027 C 
ATOM     17  C   UNL     1      50.090  51.554  18.748  1.00  0.00    +0.017 C 
BRANCH  16  18
ATOM     18  C   UNL     1      51.919  50.556  20.153  1.00  0.00    +0.011 C 
ATOM     19  C   UNL     1      50.909  49.413  20.193  1.00  0.00    +0.005 C 
ENDBRANCH  16  18
BRANCH  16  20
ATOM     20  C   UNL     1      52.542  51.951  18.210  1.00  0.00    +0.049 C 
ATOM     21  O   UNL     1      53.173  53.033  18.146  1.00  0.00    -0.549 OA
ATOM     22  O   UNL     1      52.670  50.927  17.461  1.00  0.00    -0.549 OA
ENDBRANCH  16  20
ENDBRANCH   1  12
TORSDOF 7
ENDMDL
