MODEL 1
REMARK VINA RESULT:    -7.776      0.000      0.000
REMARK INTER + INTRA:         -10.414
REMARK INTER:                 -10.049
REMARK INTRA:                  -0.365
REMARK UNBOUND:                -0.365
REMARK SMILES CCC[C@]1(C(=O)Nc2cccc(C(=O)[O-])c2)CC[NH2+]C1
REMARK SMILES IDX 4 1 17 2 18 3 19 4 20 5 3 8 2 9 1 10 5 11 6 12 7 13 8 15
REMARK SMILES IDX 9 16 16 17 10 18 12 19 11 20 13 21 14 22 15 23
REMARK H PARENT 19 6 19 7 7 14
ROOT
ATOM      1  C   UNL     1      50.996  50.811  19.853  1.00  0.00    +0.103 C 
ATOM      2  C   UNL     1      50.431  49.734  20.802  1.00  0.00    +0.084 C 
ATOM      3  C   UNL     1      51.190  48.461  20.446  1.00  0.00    +0.261 C 
ATOM      4  N   UNL     1      52.474  48.940  19.843  1.00  0.00    -0.345 N 
ATOM      5  C   UNL     1      52.481  50.445  19.889  1.00  0.00    +0.277 C 
ATOM      6  H   UNL     1      52.466  48.683  18.837  1.00  0.00    +0.346 HD
ATOM      7  H   UNL     1      53.312  48.515  20.257  1.00  0.00    +0.346 HD
ENDROOT
BRANCH   1   8
ATOM      8  C   UNL     1      50.701  52.229  20.382  1.00  0.00    +0.023 C 
BRANCH   8   9
ATOM      9  C   UNL     1      50.968  52.504  21.867  1.00  0.00    -0.002 C 
ATOM     10  C   UNL     1      51.577  53.860  22.173  1.00  0.00    +0.004 C 
ENDBRANCH   8   9
ENDBRANCH   1   8
BRANCH   1  11
ATOM     11  C   UNL     1      50.454  50.560  18.436  1.00  0.00    +0.236 C 
ATOM     12  O   UNL     1      51.238  50.597  17.488  1.00  0.00    -0.274 OA
ATOM     13  N   UNL     1      49.137  50.179  18.400  1.00  0.00    -0.325 N 
ATOM     14  H   UNL     1      48.604  50.154  19.263  1.00  0.00    +0.169 HD
BRANCH  13  15
ATOM     15  C   UNL     1      48.408  49.712  17.288  1.00  0.00    +0.041 A 
ATOM     16  C   UNL     1      48.901  49.641  15.985  1.00  0.00    +0.026 A 
ATOM     17  C   UNL     1      47.106  49.276  17.550  1.00  0.00    +0.036 A 
ATOM     18  C   UNL     1      48.098  49.129  14.962  1.00  0.00    +0.003 A 
ATOM     19  C   UNL     1      46.294  48.741  16.539  1.00  0.00    -0.001 A 
ATOM     20  C   UNL     1      46.806  48.679  15.238  1.00  0.00    +0.010 A 
BRANCH  19  21
ATOM     21  C   UNL     1      44.907  48.234  16.874  1.00  0.00    +0.072 C 
ATOM     22  O   UNL     1      44.599  48.210  18.107  1.00  0.00    -0.545 OA
ATOM     23  O   UNL     1      44.175  47.868  15.906  1.00  0.00    -0.545 OA
ENDBRANCH  19  21
ENDBRANCH  13  15
ENDBRANCH   1  11
TORSDOF 5
ENDMDL
MODEL 2
REMARK VINA RESULT:    -7.553      3.873      8.159
REMARK INTER + INTRA:         -10.126
REMARK INTER:                  -9.305
REMARK INTRA:                  -0.822
REMARK UNBOUND:                -0.365
REMARK SMILES CCC[C@]1(C(=O)Nc2cccc(C(=O)[O-])c2)CC[NH2+]C1
REMARK SMILES IDX 4 1 17 2 18 3 19 4 20 5 3 8 2 9 1 10 5 11 6 12 7 13 8 15
REMARK SMILES IDX 9 16 16 17 10 18 12 19 11 20 13 21 14 22 15 23
REMARK H PARENT 19 6 19 7 7 14
ROOT
ATOM      1  C   UNL     1      50.604  51.660  19.596  1.00  0.00    +0.103 C 
ATOM      2  C   UNL     1      51.944  51.741  18.836  1.00  0.00    +0.084 C 
ATOM      3  C   UNL     1      53.005  51.407  19.878  1.00  0.00    +0.261 C 
ATOM      4  N   UNL     1      52.284  50.593  20.907  1.00  0.00    -0.345 N 
ATOM      5  C   UNL     1      50.859  50.419  20.455  1.00  0.00    +0.277 C 
ATOM      6  H   UNL     1      52.243  51.152  21.781  1.00  0.00    +0.346 HD
ATOM      7  H   UNL     1      52.749  49.706  21.137  1.00  0.00    +0.346 HD
ENDROOT
BRANCH   1   8
ATOM      8  C   UNL     1      49.421  51.497  18.620  1.00  0.00    +0.023 C 
BRANCH   8   9
ATOM      9  C   UNL     1      49.048  50.074  18.185  1.00  0.00    -0.002 C 
ATOM     10  C   UNL     1      47.636  49.911  17.653  1.00  0.00    +0.004 C 
ENDBRANCH   8   9
ENDBRANCH   1   8
BRANCH   1  11
ATOM     11  C   UNL     1      50.476  52.886  20.515  1.00  0.00    +0.236 C 
ATOM     12  O   UNL     1      50.498  52.717  21.733  1.00  0.00    -0.274 OA
ATOM     13  N   UNL     1      50.487  54.086  19.850  1.00  0.00    -0.325 N 
ATOM     14  H   UNL     1      50.506  54.091  18.836  1.00  0.00    +0.169 HD
BRANCH  13  15
ATOM     15  C   UNL     1      50.563  55.377  20.411  1.00  0.00    +0.041 A 
ATOM     16  C   UNL     1      49.467  56.131  20.828  1.00  0.00    +0.026 A 
ATOM     17  C   UNL     1      51.850  55.900  20.565  1.00  0.00    +0.036 A 
ATOM     18  C   UNL     1      49.663  57.390  21.402  1.00  0.00    +0.003 A 
ATOM     19  C   UNL     1      52.067  57.154  21.157  1.00  0.00    -0.001 A 
ATOM     20  C   UNL     1      50.954  57.896  21.568  1.00  0.00    +0.010 A 
BRANCH  19  21
ATOM     21  C   UNL     1      53.479  57.663  21.350  1.00  0.00    +0.072 C 
ATOM     22  O   UNL     1      53.619  58.648  22.143  1.00  0.00    -0.545 OA
ATOM     23  O   UNL     1      54.400  57.079  20.703  1.00  0.00    -0.545 OA
ENDBRANCH  19  21
ENDBRANCH  13  15
ENDBRANCH   1  11
TORSDOF 5
ENDMDL
MODEL 3
REMARK VINA RESULT:    -7.543      3.419      6.914
REMARK INTER + INTRA:         -10.113
REMARK INTER:                  -9.553
REMARK INTRA:                  -0.560
REMARK UNBOUND:                -0.365
REMARK SMILES CCC[C@]1(C(=O)Nc2cccc(C(=O)[O-])c2)CC[NH2+]C1
REMARK SMILES IDX 4 1 17 2 18 3 19 4 20 5 3 8 2 9 1 10 5 11 6 12 7 13 8 15
REMARK SMILES IDX 9 16 16 17 10 18 12 19 11 20 13 21 14 22 15 23
REMARK H PARENT 19 6 19 7 7 14
ROOT
ATOM      1  C   UNL     1      50.578  50.441  19.357  1.00  0.00    +0.103 C 
ATOM      2  C   UNL     1      51.813  50.605  18.448  1.00  0.00    +0.084 C 
ATOM      3  C   UNL     1      52.988  50.125  19.293  1.00  0.00    +0.261 C 
ATOM      4  N   UNL     1      52.380  49.192  20.294  1.00  0.00    -0.345 N 
ATOM      5  C   UNL     1      50.905  49.096  20.011  1.00  0.00    +0.277 C 
ATOM      6  H   UNL     1      52.465  49.633  21.230  1.00  0.00    +0.346 HD
ATOM      7  H   UNL     1      52.845  48.278  20.347  1.00  0.00    +0.346 HD
ENDROOT
BRANCH   1   8
ATOM      8  C   UNL     1      49.278  50.420  18.530  1.00  0.00    +0.023 C 
BRANCH   8   9
ATOM      9  C   UNL     1      48.454  49.126  18.531  1.00  0.00    -0.002 C 
ATOM     10  C   UNL     1      47.028  49.269  18.032  1.00  0.00    +0.004 C 
ENDBRANCH   8   9
ENDBRANCH   1   8
BRANCH   1  11
ATOM     11  C   UNL     1      50.603  51.538  20.434  1.00  0.00    +0.236 C 
ATOM     12  O   UNL     1      50.870  51.224  21.592  1.00  0.00    -0.274 OA
ATOM     13  N   UNL     1      50.449  52.809  19.940  1.00  0.00    -0.325 N 
ATOM     14  H   UNL     1      50.267  52.938  18.951  1.00  0.00    +0.169 HD
BRANCH  13  15
ATOM     15  C   UNL     1      50.601  54.025  20.637  1.00  0.00    +0.041 A 
ATOM     16  C   UNL     1      51.672  54.336  21.473  1.00  0.00    +0.026 A 
ATOM     17  C   UNL     1      49.594  54.974  20.436  1.00  0.00    +0.036 A 
ATOM     18  C   UNL     1      51.736  55.589  22.090  1.00  0.00    +0.003 A 
ATOM     19  C   UNL     1      49.652  56.243  21.030  1.00  0.00    -0.001 A 
ATOM     20  C   UNL     1      50.735  56.536  21.867  1.00  0.00    +0.010 A 
BRANCH  19  21
ATOM     21  C   UNL     1      48.567  57.260  20.747  1.00  0.00    +0.072 C 
ATOM     22  O   UNL     1      48.367  58.136  21.647  1.00  0.00    -0.545 OA
ATOM     23  O   UNL     1      47.943  57.151  19.649  1.00  0.00    -0.545 OA
ENDBRANCH  19  21
ENDBRANCH  13  15
ENDBRANCH   1  11
TORSDOF 5
ENDMDL
MODEL 4
REMARK VINA RESULT:    -7.483      2.456      6.794
REMARK INTER + INTRA:         -10.035
REMARK INTER:                  -9.297
REMARK INTRA:                  -0.739
REMARK UNBOUND:                -0.365
REMARK SMILES CCC[C@]1(C(=O)Nc2cccc(C(=O)[O-])c2)CC[NH2+]C1
REMARK SMILES IDX 4 1 17 2 18 3 19 4 20 5 3 8 2 9 1 10 5 11 6 12 7 13 8 15
REMARK SMILES IDX 9 16 16 17 10 18 12 19 11 20 13 21 14 22 15 23
REMARK H PARENT 19 6 19 7 7 14
ROOT
ATOM      1  C   UNL     1      46.977  48.578  17.463  1.00  0.00    +0.103 C 
ATOM      2  C   UNL     1      46.783  49.890  16.675  1.00  0.00    +0.084 C 
ATOM      3  C   UNL     1      47.535  49.675  15.367  1.00  0.00    +0.261 C 
ATOM      4  N   UNL     1      47.568  48.189  15.187  1.00  0.00    -0.345 N 
ATOM      5  C   UNL     1      46.818  47.561  16.331  1.00  0.00    +0.277 C 
ATOM      6  H   UNL     1      48.554  47.880  15.285  1.00  0.00    +0.346 HD
ATOM      7  H   UNL     1      47.243  47.875  14.265  1.00  0.00    +0.346 HD
ENDROOT
BRANCH   1   8
ATOM      8  C   UNL     1      45.915  48.433  18.571  1.00  0.00    +0.023 C 
BRANCH   8   9
ATOM      9  C   UNL     1      45.028  47.182  18.547  1.00  0.00    -0.002 C 
ATOM     10  C   UNL     1      44.311  46.874  19.849  1.00  0.00    +0.004 C 
ENDBRANCH   8   9
ENDBRANCH   1   8
BRANCH   1  11
ATOM     11  C   UNL     1      48.421  48.520  17.988  1.00  0.00    +0.236 C 
ATOM     12  O   UNL     1      49.132  47.571  17.660  1.00  0.00    -0.274 OA
ATOM     13  N   UNL     1      48.811  49.640  18.678  1.00  0.00    -0.325 N 
ATOM     14  H   UNL     1      48.134  50.375  18.854  1.00  0.00    +0.169 HD
BRANCH  13  15
ATOM     15  C   UNL     1      50.108  49.965  19.125  1.00  0.00    +0.041 A 
ATOM     16  C   UNL     1      50.874  49.180  19.985  1.00  0.00    +0.026 A 
ATOM     17  C   UNL     1      50.642  51.159  18.633  1.00  0.00    +0.036 A 
ATOM     18  C   UNL     1      52.164  49.585  20.338  1.00  0.00    +0.003 A 
ATOM     19  C   UNL     1      51.942  51.571  18.960  1.00  0.00    -0.001 A 
ATOM     20  C   UNL     1      52.695  50.770  19.826  1.00  0.00    +0.010 A 
BRANCH  19  21
ATOM     21  C   UNL     1      52.502  52.847  18.367  1.00  0.00    +0.072 C 
ATOM     22  O   UNL     1      53.501  52.716  17.591  1.00  0.00    -0.545 OA
ATOM     23  O   UNL     1      51.941  53.934  18.698  1.00  0.00    -0.545 OA
ENDBRANCH  19  21
ENDBRANCH  13  15
ENDBRANCH   1  11
TORSDOF 5
ENDMDL
MODEL 5
REMARK VINA RESULT:    -7.233      3.822      5.986
REMARK INTER + INTRA:          -9.712
REMARK INTER:                  -8.839
REMARK INTRA:                  -0.873
REMARK UNBOUND:                -0.365
REMARK SMILES CCC[C@]1(C(=O)Nc2cccc(C(=O)[O-])c2)CC[NH2+]C1
REMARK SMILES IDX 4 1 17 2 18 3 19 4 20 5 3 8 2 9 1 10 5 11 6 12 7 13 8 15
REMARK SMILES IDX 9 16 16 17 10 18 12 19 11 20 13 21 14 22 15 23
REMARK H PARENT 19 6 19 7 7 14
ROOT
ATOM      1  C   UNL     1      50.604  56.513  20.302  1.00  0.00    +0.103 C 
ATOM      2  C   UNL     1      50.506  56.051  21.771  1.00  0.00    +0.084 C 
ATOM      3  C   UNL     1      51.938  55.715  22.171  1.00  0.00    +0.261 C 
ATOM      4  N   UNL     1      52.792  56.528  21.248  1.00  0.00    -0.345 N 
ATOM      5  C   UNL     1      51.885  57.348  20.370  1.00  0.00    +0.277 C 
ATOM      6  H   UNL     1      53.289  55.872  20.615  1.00  0.00    +0.346 HD
ATOM      7  H   UNL     1      53.507  57.087  21.728  1.00  0.00    +0.346 HD
ENDROOT
BRANCH   1   8
ATOM      8  C   UNL     1      49.361  57.329  19.893  1.00  0.00    +0.023 C 
BRANCH   8   9
ATOM      9  C   UNL     1      48.307  57.611  20.972  1.00  0.00    -0.002 C 
ATOM     10  C   UNL     1      47.091  58.385  20.499  1.00  0.00    +0.004 C 
ENDBRANCH   8   9
ENDBRANCH   1   8
BRANCH   1  11
ATOM     11  C   UNL     1      50.853  55.287  19.409  1.00  0.00    +0.236 C 
ATOM     12  O   UNL     1      51.924  55.200  18.810  1.00  0.00    -0.274 OA
ATOM     13  N   UNL     1      49.874  54.329  19.488  1.00  0.00    -0.325 N 
ATOM     14  H   UNL     1      49.049  54.509  20.050  1.00  0.00    +0.169 HD
BRANCH  13  15
ATOM     15  C   UNL     1      49.896  53.032  18.937  1.00  0.00    +0.041 A 
ATOM     16  C   UNL     1      49.360  52.683  17.699  1.00  0.00    +0.026 A 
ATOM     17  C   UNL     1      50.529  52.052  19.708  1.00  0.00    +0.036 A 
ATOM     18  C   UNL     1      49.467  51.368  17.236  1.00  0.00    +0.003 A 
ATOM     19  C   UNL     1      50.664  50.732  19.251  1.00  0.00    -0.001 A 
ATOM     20  C   UNL     1      50.118  50.402  18.005  1.00  0.00    +0.010 A 
BRANCH  19  21
ATOM     21  C   UNL     1      51.400  49.713  20.094  1.00  0.00    +0.072 C 
ATOM     22  O   UNL     1      50.711  49.109  20.976  1.00  0.00    -0.545 OA
ATOM     23  O   UNL     1      52.635  49.552  19.862  1.00  0.00    -0.545 OA
ENDBRANCH  19  21
ENDBRANCH  13  15
ENDBRANCH   1  11
TORSDOF 5
ENDMDL
