MODEL 1
REMARK VINA RESULT:    -7.702      0.000      0.000
REMARK INTER + INTRA:         -10.688
REMARK INTER:                  -9.953
REMARK INTRA:                  -0.735
REMARK UNBOUND:                -0.735
REMARK SMILES CCC[C@@]1(C(=O)Nc2ccc(C(=O)[O-])c(Cl)c2)CC[NH2+]C1
REMARK SMILES IDX 4 1 18 2 19 3 20 4 21 5 3 8 2 9 1 10 5 11 6 12 7 13 8 15
REMARK SMILES IDX 9 16 17 17 10 18 15 19 11 20 16 21 12 22 13 23 14 24
REMARK H PARENT 20 6 20 7 7 14
ROOT
ATOM      1  C   UNL     1      51.250  50.796  19.966  1.00  0.00    +0.103 C 
ATOM      2  C   UNL     1      51.379  51.789  18.793  1.00  0.00    +0.084 C 
ATOM      3  C   UNL     1      52.159  51.036  17.719  1.00  0.00    +0.261 C 
ATOM      4  N   UNL     1      52.923  49.990  18.468  1.00  0.00    -0.345 N 
ATOM      5  C   UNL     1      52.648  50.170  19.936  1.00  0.00    +0.277 C 
ATOM      6  H   UNL     1      53.924  49.957  18.239  1.00  0.00    +0.346 HD
ATOM      7  H   UNL     1      52.524  49.065  18.214  1.00  0.00    +0.346 HD
ENDROOT
BRANCH   1   8
ATOM      8  C   UNL     1      50.936  51.527  21.285  1.00  0.00    +0.023 C 
BRANCH   8   9
ATOM      9  C   UNL     1      50.680  53.038  21.219  1.00  0.00    -0.002 C 
ATOM     10  C   UNL     1      51.605  53.886  22.074  1.00  0.00    +0.004 C 
ENDBRANCH   8   9
ENDBRANCH   1   8
BRANCH   1  11
ATOM     11  C   UNL     1      50.217  49.724  19.585  1.00  0.00    +0.236 C 
ATOM     12  O   UNL     1      50.461  48.553  19.869  1.00  0.00    -0.274 OA
ATOM     13  N   UNL     1      49.165  50.183  18.826  1.00  0.00    -0.325 N 
ATOM     14  H   UNL     1      49.033  51.183  18.725  1.00  0.00    +0.169 HD
BRANCH  13  15
ATOM     15  C   UNL     1      48.224  49.403  18.116  1.00  0.00    +0.042 A 
ATOM     16  C   UNL     1      47.333  48.644  18.878  1.00  0.00    +0.027 A 
ATOM     17  C   UNL     1      48.113  49.381  16.725  1.00  0.00    +0.047 A 
ATOM     18  C   UNL     1      46.326  47.908  18.254  1.00  0.00    +0.014 A 
ATOM     19  C   UNL     1      47.099  48.642  16.095  1.00  0.00    +0.052 A 
ATOM     20  C   UNL     1      46.182  47.918  16.856  1.00  0.00    +0.016 A 
ATOM     21 Cl   UNL     1      47.092  48.657  14.365  1.00  0.00    -0.084 Cl
BRANCH  20  22
ATOM     22  C   UNL     1      45.038  47.161  16.257  1.00  0.00    +0.073 C 
ATOM     23  O   UNL     1      45.205  45.919  16.074  1.00  0.00    -0.545 OA
ATOM     24  O   UNL     1      44.029  47.854  15.922  1.00  0.00    -0.545 OA
ENDBRANCH  20  22
ENDBRANCH  13  15
ENDBRANCH   1  11
TORSDOF 5
ENDMDL
MODEL 2
REMARK VINA RESULT:    -7.162      4.842      7.574
REMARK INTER + INTRA:          -9.991
REMARK INTER:                  -9.525
REMARK INTRA:                  -0.466
REMARK UNBOUND:                -0.735
REMARK SMILES CCC[C@@]1(C(=O)Nc2ccc(C(=O)[O-])c(Cl)c2)CC[NH2+]C1
REMARK SMILES IDX 4 1 18 2 19 3 20 4 21 5 3 8 2 9 1 10 5 11 6 12 7 13 8 15
REMARK SMILES IDX 9 16 17 17 10 18 15 19 11 20 16 21 12 22 13 23 14 24
REMARK H PARENT 20 6 20 7 7 14
ROOT
ATOM      1  C   UNL     1      50.430  50.664  18.817  1.00  0.00    +0.103 C 
ATOM      2  C   UNL     1      51.173  49.601  19.653  1.00  0.00    +0.084 C 
ATOM      3  C   UNL     1      52.652  49.958  19.526  1.00  0.00    +0.261 C 
ATOM      4  N   UNL     1      52.747  50.733  18.250  1.00  0.00    -0.345 N 
ATOM      5  C   UNL     1      51.381  50.770  17.620  1.00  0.00    +0.277 C 
ATOM      6  H   UNL     1      53.484  50.404  17.614  1.00  0.00    +0.346 HD
ATOM      7  H   UNL     1      52.975  51.717  18.494  1.00  0.00    +0.346 HD
ENDROOT
BRANCH   1   8
ATOM      8  C   UNL     1      49.017  50.187  18.434  1.00  0.00    +0.023 C 
BRANCH   8   9
ATOM      9  C   UNL     1      48.707  48.690  18.576  1.00  0.00    -0.002 C 
ATOM     10  C   UNL     1      48.618  47.924  17.269  1.00  0.00    +0.004 C 
ENDBRANCH   8   9
ENDBRANCH   1   8
BRANCH   1  11
ATOM     11  C   UNL     1      50.453  51.993  19.588  1.00  0.00    +0.236 C 
ATOM     12  O   UNL     1      50.609  51.957  20.807  1.00  0.00    -0.274 OA
ATOM     13  N   UNL     1      50.152  53.102  18.831  1.00  0.00    -0.325 N 
ATOM     14  H   UNL     1      50.120  53.013  17.822  1.00  0.00    +0.169 HD
BRANCH  13  15
ATOM     15  C   UNL     1      49.839  54.396  19.305  1.00  0.00    +0.042 A 
ATOM     16  C   UNL     1      48.483  54.702  19.447  1.00  0.00    +0.027 A 
ATOM     17  C   UNL     1      50.789  55.350  19.669  1.00  0.00    +0.047 A 
ATOM     18  C   UNL     1      48.093  55.931  19.981  1.00  0.00    +0.014 A 
ATOM     19  C   UNL     1      50.399  56.587  20.208  1.00  0.00    +0.052 A 
ATOM     20  C   UNL     1      49.047  56.878  20.392  1.00  0.00    +0.016 A 
ATOM     21 Cl   UNL     1      51.667  57.704  20.579  1.00  0.00    -0.084 Cl
BRANCH  20  22
ATOM     22  C   UNL     1      48.560  58.146  21.020  1.00  0.00    +0.073 C 
ATOM     23  O   UNL     1      47.837  58.900  20.304  1.00  0.00    -0.545 OA
ATOM     24  O   UNL     1      48.981  58.380  22.194  1.00  0.00    -0.545 OA
ENDBRANCH  20  22
ENDBRANCH  13  15
ENDBRANCH   1  11
TORSDOF 5
ENDMDL
MODEL 3
REMARK VINA RESULT:    -7.077      4.467      8.097
REMARK INTER + INTRA:          -9.881
REMARK INTER:                  -9.444
REMARK INTRA:                  -0.437
REMARK UNBOUND:                -0.735
REMARK SMILES CCC[C@@]1(C(=O)Nc2ccc(C(=O)[O-])c(Cl)c2)CC[NH2+]C1
REMARK SMILES IDX 4 1 18 2 19 3 20 4 21 5 3 8 2 9 1 10 5 11 6 12 7 13 8 15
REMARK SMILES IDX 9 16 17 17 10 18 15 19 11 20 16 21 12 22 13 23 14 24
REMARK H PARENT 20 6 20 7 7 14
ROOT
ATOM      1  C   UNL     1      48.696  51.039  17.396  1.00  0.00    +0.103 C 
ATOM      2  C   UNL     1      49.382  50.049  18.361  1.00  0.00    +0.084 C 
ATOM      3  C   UNL     1      50.865  50.110  18.004  1.00  0.00    +0.261 C 
ATOM      4  N   UNL     1      50.896  50.588  16.587  1.00  0.00    -0.345 N 
ATOM      5  C   UNL     1      49.477  50.737  16.111  1.00  0.00    +0.277 C 
ATOM      6  H   UNL     1      51.479  50.016  15.964  1.00  0.00    +0.346 HD
ATOM      7  H   UNL     1      51.300  51.545  16.585  1.00  0.00    +0.346 HD
ENDROOT
BRANCH   1   8
ATOM      8  C   UNL     1      47.188  50.750  17.277  1.00  0.00    +0.023 C 
BRANCH   8   9
ATOM      9  C   UNL     1      46.694  49.360  17.699  1.00  0.00    -0.002 C 
ATOM     10  C   UNL     1      45.229  49.084  17.412  1.00  0.00    +0.004 C 
ENDBRANCH   8   9
ENDBRANCH   1   8
BRANCH   1  11
ATOM     11  C   UNL     1      49.024  52.469  17.851  1.00  0.00    +0.236 C 
ATOM     12  O   UNL     1      49.003  53.368  17.012  1.00  0.00    -0.274 OA
ATOM     13  N   UNL     1      49.452  52.573  19.156  1.00  0.00    -0.325 N 
ATOM     14  H   UNL     1      49.351  51.773  19.770  1.00  0.00    +0.169 HD
BRANCH  13  15
ATOM     15  C   UNL     1      50.066  53.691  19.763  1.00  0.00    +0.042 A 
ATOM     16  C   UNL     1      51.463  53.688  19.819  1.00  0.00    +0.027 A 
ATOM     17  C   UNL     1      49.373  54.794  20.263  1.00  0.00    +0.047 A 
ATOM     18  C   UNL     1      52.147  54.789  20.333  1.00  0.00    +0.014 A 
ATOM     19  C   UNL     1      50.060  55.904  20.779  1.00  0.00    +0.052 A 
ATOM     20  C   UNL     1      51.454  55.921  20.796  1.00  0.00    +0.016 A 
ATOM     21 Cl   UNL     1      49.089  57.190  21.410  1.00  0.00    -0.084 Cl
BRANCH  20  22
ATOM     22  C   UNL     1      52.253  57.095  21.271  1.00  0.00    +0.073 C 
ATOM     23  O   UNL     1      52.089  58.188  20.653  1.00  0.00    -0.545 OA
ATOM     24  O   UNL     1      53.077  56.861  22.208  1.00  0.00    -0.545 OA
ENDBRANCH  20  22
ENDBRANCH  13  15
ENDBRANCH   1  11
TORSDOF 5
ENDMDL
MODEL 4
REMARK VINA RESULT:    -6.745      1.739      2.292
REMARK INTER + INTRA:          -9.452
REMARK INTER:                  -9.137
REMARK INTRA:                  -0.315
REMARK UNBOUND:                -0.735
REMARK SMILES CCC[C@@]1(C(=O)Nc2ccc(C(=O)[O-])c(Cl)c2)CC[NH2+]C1
REMARK SMILES IDX 4 1 18 2 19 3 20 4 21 5 3 8 2 9 1 10 5 11 6 12 7 13 8 15
REMARK SMILES IDX 9 16 17 17 10 18 15 19 11 20 16 21 12 22 13 23 14 24
REMARK H PARENT 20 6 20 7 7 14
ROOT
ATOM      1  C   UNL     1      51.094  51.624  19.373  1.00  0.00    +0.103 C 
ATOM      2  C   UNL     1      52.383  51.133  18.681  1.00  0.00    +0.084 C 
ATOM      3  C   UNL     1      52.784  49.869  19.438  1.00  0.00    +0.261 C 
ATOM      4  N   UNL     1      52.153  50.018  20.786  1.00  0.00    -0.345 N 
ATOM      5  C   UNL     1      51.462  51.354  20.836  1.00  0.00    +0.277 C 
ATOM      6  H   UNL     1      52.798  49.859  21.570  1.00  0.00    +0.346 HD
ATOM      7  H   UNL     1      51.401  49.305  20.864  1.00  0.00    +0.346 HD
ENDROOT
BRANCH   1   8
ATOM      8  C   UNL     1      50.830  53.111  19.074  1.00  0.00    +0.023 C 
BRANCH   8   9
ATOM      9  C   UNL     1      49.954  53.892  20.063  1.00  0.00    -0.002 C 
ATOM     10  C   UNL     1      48.749  54.582  19.450  1.00  0.00    +0.004 C 
ENDBRANCH   8   9
ENDBRANCH   1   8
BRANCH   1  11
ATOM     11  C   UNL     1      49.941  50.692  18.972  1.00  0.00    +0.236 C 
ATOM     12  O   UNL     1      49.772  49.660  19.620  1.00  0.00    -0.274 OA
ATOM     13  N   UNL     1      49.286  51.052  17.815  1.00  0.00    -0.325 N 
ATOM     14  H   UNL     1      49.465  51.965  17.415  1.00  0.00    +0.169 HD
BRANCH  13  15
ATOM     15  C   UNL     1      48.383  50.262  17.068  1.00  0.00    +0.042 A 
ATOM     16  C   UNL     1      48.820  49.822  15.816  1.00  0.00    +0.027 A 
ATOM     17  C   UNL     1      47.122  49.873  17.519  1.00  0.00    +0.047 A 
ATOM     18  C   UNL     1      48.017  48.975  15.051  1.00  0.00    +0.014 A 
ATOM     19  C   UNL     1      46.312  49.020  16.751  1.00  0.00    +0.052 A 
ATOM     20  C   UNL     1      46.764  48.544  15.521  1.00  0.00    +0.016 A 
ATOM     21 Cl   UNL     1      44.752  48.645  17.397  1.00  0.00    -0.084 Cl
BRANCH  20  22
ATOM     22  C   UNL     1      45.986  47.582  14.679  1.00  0.00    +0.073 C 
ATOM     23  O   UNL     1      45.705  46.462  15.198  1.00  0.00    -0.545 OA
ATOM     24  O   UNL     1      45.742  47.957  13.491  1.00  0.00    -0.545 OA
ENDBRANCH  20  22
ENDBRANCH  13  15
ENDBRANCH   1  11
TORSDOF 5
ENDMDL
MODEL 5
REMARK VINA RESULT:    -6.591      2.424      3.071
REMARK INTER + INTRA:          -9.252
REMARK INTER:                  -8.697
REMARK INTRA:                  -0.556
REMARK UNBOUND:                -0.735
REMARK SMILES CCC[C@@]1(C(=O)Nc2ccc(C(=O)[O-])c(Cl)c2)CC[NH2+]C1
REMARK SMILES IDX 4 1 18 2 19 3 20 4 21 5 3 8 2 9 1 10 5 11 6 12 7 13 8 15
REMARK SMILES IDX 9 16 17 17 10 18 15 19 11 20 16 21 12 22 13 23 14 24
REMARK H PARENT 20 6 20 7 7 14
ROOT
ATOM      1  C   UNL     1      51.784  53.160  20.054  1.00  0.00    +0.103 C 
ATOM      2  C   UNL     1      52.738  51.948  20.038  1.00  0.00    +0.084 C 
ATOM      3  C   UNL     1      52.255  51.048  21.172  1.00  0.00    +0.261 C 
ATOM      4  N   UNL     1      51.531  51.968  22.105  1.00  0.00    -0.345 N 
ATOM      5  C   UNL     1      51.645  53.367  21.566  1.00  0.00    +0.277 C 
ATOM      6  H   UNL     1      51.821  51.881  23.087  1.00  0.00    +0.346 HD
ATOM      7  H   UNL     1      50.521  51.727  22.065  1.00  0.00    +0.346 HD
ENDROOT
BRANCH   1   8
ATOM      8  C   UNL     1      52.402  54.368  19.325  1.00  0.00    +0.023 C 
BRANCH   8   9
ATOM      9  C   UNL     1      52.292  55.741  20.003  1.00  0.00    -0.002 C 
ATOM     10  C   UNL     1      50.957  56.441  19.825  1.00  0.00    +0.004 C 
ENDBRANCH   8   9
ENDBRANCH   1   8
BRANCH   1  11
ATOM     11  C   UNL     1      50.425  52.718  19.487  1.00  0.00    +0.236 C 
ATOM     12  O   UNL     1      49.404  53.139  20.027  1.00  0.00    -0.274 OA
ATOM     13  N   UNL     1      50.498  51.765  18.496  1.00  0.00    -0.325 N 
ATOM     14  H   UNL     1      51.399  51.557  18.083  1.00  0.00    +0.169 HD
BRANCH  13  15
ATOM     15  C   UNL     1      49.435  50.988  17.984  1.00  0.00    +0.042 A 
ATOM     16  C   UNL     1      48.309  51.681  17.534  1.00  0.00    +0.027 A 
ATOM     17  C   UNL     1      49.463  49.598  17.869  1.00  0.00    +0.047 A 
ATOM     18  C   UNL     1      47.249  50.991  16.944  1.00  0.00    +0.014 A 
ATOM     19  C   UNL     1      48.398  48.901  17.275  1.00  0.00    +0.052 A 
ATOM     20  C   UNL     1      47.292  49.596  16.785  1.00  0.00    +0.016 A 
ATOM     21 Cl   UNL     1      48.530  47.177  17.230  1.00  0.00    -0.084 Cl
BRANCH  20  22
ATOM     22  C   UNL     1      46.152  48.928  16.082  1.00  0.00    +0.073 C 
ATOM     23  O   UNL     1      45.090  48.751  16.750  1.00  0.00    -0.545 OA
ATOM     24  O   UNL     1      46.384  48.537  14.897  1.00  0.00    -0.545 OA
ENDBRANCH  20  22
ENDBRANCH  13  15
ENDBRANCH   1  11
TORSDOF 5
ENDMDL
