MODEL 1
REMARK VINA RESULT:    -6.554      0.000      0.000
REMARK INTER + INTRA:          -8.551
REMARK INTER:                  -8.086
REMARK INTRA:                  -0.465
REMARK UNBOUND:                -0.465
REMARK SMILES NC(=[NH2+])CCN1CC[C@@H](N2CCOCC2)C1
REMARK SMILES IDX 5 1 6 2 8 3 7 4 9 5 16 6 10 7 11 8 15 9 12 10 14 11 13 12
REMARK SMILES IDX 4 13 2 14 3 15 1 16
REMARK H PARENT 3 17 3 18 1 19 1 20
ROOT
ATOM      1  C   UNL     1      51.778  51.602  18.378  1.00  0.00    +0.097 C 
ENDROOT
BRANCH   1   2
ATOM      2  N   UNL     1      51.393  52.972  18.704  1.00  0.00    -0.301 NA
ATOM      3  C   UNL     1      50.418  54.421  20.336  1.00  0.00    +0.036 C 
ATOM      4  C   UNL     1      50.255  53.079  19.625  1.00  0.00    +0.086 C 
ATOM      5  C   UNL     1      51.766  54.985  19.862  1.00  0.00    +0.072 C 
ATOM      6  C   UNL     1      52.477  53.712  19.369  1.00  0.00    +0.103 C 
BRANCH   5   7
ATOM      7  N   UNL     1      52.482  55.739  20.902  1.00  0.00    -0.294 NA
ATOM      8  C   UNL     1      53.360  56.785  20.326  1.00  0.00    +0.113 C 
ATOM      9  C   UNL     1      51.583  56.333  21.921  1.00  0.00    +0.113 C 
ATOM     10  C   UNL     1      53.676  57.899  21.337  1.00  0.00    +0.175 C 
ATOM     11  C   UNL     1      51.314  57.832  21.710  1.00  0.00    +0.175 C 
ATOM     12  O   UNL     1      52.506  58.629  21.724  1.00  0.00    -0.379 OA
ENDBRANCH   5   7
ENDBRANCH   1   2
BRANCH   1  13
ATOM     13  C   UNL     1      51.155  50.593  19.348  1.00  0.00    +0.142 C 
BRANCH  13  14
ATOM     14  C   UNL     1      52.196  50.020  20.238  1.00  0.00    +0.239 C 
ATOM     15  N   UNL     1      52.489  50.657  21.351  1.00  0.00    -0.291 N 
ATOM     16  N   UNL     1      52.792  48.903  19.878  1.00  0.00    -0.291 N 
ATOM     17  H   UNL     1      53.193  50.327  22.000  1.00  0.00    +0.301 HD
ATOM     18  H   UNL     1      52.014  51.523  21.596  1.00  0.00    +0.301 HD
ATOM     19  H   UNL     1      53.513  48.469  20.440  1.00  0.00    +0.301 HD
ATOM     20  H   UNL     1      52.552  48.438  19.006  1.00  0.00    +0.301 HD
ENDBRANCH  13  14
ENDBRANCH   1  13
TORSDOF 4
ENDMDL
MODEL 2
REMARK VINA RESULT:    -6.067      5.786      8.408
REMARK INTER + INTRA:          -7.951
REMARK INTER:                  -7.550
REMARK INTRA:                  -0.401
REMARK UNBOUND:                -0.465
REMARK SMILES NC(=[NH2+])CCN1CC[C@@H](N2CCOCC2)C1
REMARK SMILES IDX 5 1 6 2 8 3 7 4 9 5 16 6 10 7 11 8 15 9 12 10 14 11 13 12
REMARK SMILES IDX 4 13 2 14 3 15 1 16
REMARK H PARENT 3 17 3 18 1 19 1 20
ROOT
ATOM      1  C   UNL     1      50.224  51.245  19.066  1.00  0.00    +0.097 C 
ENDROOT
BRANCH   1   2
ATOM      2  N   UNL     1      49.641  50.139  18.313  1.00  0.00    -0.301 NA
ATOM      3  C   UNL     1      47.948  48.452  18.260  1.00  0.00    +0.036 C 
ATOM      4  C   UNL     1      49.009  49.107  19.144  1.00  0.00    +0.086 C 
ATOM      5  C   UNL     1      47.936  49.260  16.953  1.00  0.00    +0.072 C 
ATOM      6  C   UNL     1      48.574  50.586  17.403  1.00  0.00    +0.103 C 
BRANCH   5   7
ATOM      7  N   UNL     1      46.597  49.382  16.355  1.00  0.00    -0.294 NA
ATOM      8  C   UNL     1      46.331  48.311  15.364  1.00  0.00    +0.113 C 
ATOM      9  C   UNL     1      45.508  49.428  17.360  1.00  0.00    +0.113 C 
ATOM     10  C   UNL     1      44.827  48.086  15.143  1.00  0.00    +0.175 C 
ATOM     11  C   UNL     1      44.770  48.090  17.535  1.00  0.00    +0.175 C 
ATOM     12  O   UNL     1      44.170  47.611  16.324  1.00  0.00    -0.379 OA
ENDBRANCH   5   7
ENDBRANCH   1   2
BRANCH   1  13
ATOM     13  C   UNL     1      51.408  51.874  18.324  1.00  0.00    +0.142 C 
BRANCH  13  14
ATOM     14  C   UNL     1      52.378  50.827  17.916  1.00  0.00    +0.239 C 
ATOM     15  N   UNL     1      52.736  50.762  16.652  1.00  0.00    -0.291 N 
ATOM     16  N   UNL     1      52.836  49.998  18.830  1.00  0.00    -0.291 N 
ATOM     17  H   UNL     1      53.388  50.069  16.303  1.00  0.00    +0.301 HD
ATOM     18  H   UNL     1      52.356  51.414  15.969  1.00  0.00    +0.301 HD
ATOM     19  H   UNL     1      53.495  49.260  18.610  1.00  0.00    +0.301 HD
ATOM     20  H   UNL     1      52.534  50.065  19.798  1.00  0.00    +0.301 HD
ENDBRANCH  13  14
ENDBRANCH   1  13
TORSDOF 4
ENDMDL
MODEL 3
REMARK VINA RESULT:    -6.060      1.953      2.845
REMARK INTER + INTRA:          -7.942
REMARK INTER:                  -7.450
REMARK INTRA:                  -0.492
REMARK UNBOUND:                -0.465
REMARK SMILES NC(=[NH2+])CCN1CC[C@@H](N2CCOCC2)C1
REMARK SMILES IDX 5 1 6 2 8 3 7 4 9 5 16 6 10 7 11 8 15 9 12 10 14 11 13 12
REMARK SMILES IDX 4 13 2 14 3 15 1 16
REMARK H PARENT 3 17 3 18 1 19 1 20
ROOT
ATOM      1  C   UNL     1      51.144  51.695  18.663  1.00  0.00    +0.097 C 
ENDROOT
BRANCH   1   2
ATOM      2  N   UNL     1      51.304  52.899  19.473  1.00  0.00    -0.301 NA
ATOM      3  C   UNL     1      52.108  55.149  19.543  1.00  0.00    +0.036 C 
ATOM      4  C   UNL     1      52.459  53.727  19.108  1.00  0.00    +0.086 C 
ATOM      5  C   UNL     1      50.656  55.088  20.041  1.00  0.00    +0.072 C 
ATOM      6  C   UNL     1      50.150  53.805  19.358  1.00  0.00    +0.103 C 
BRANCH   5   7
ATOM      7  N   UNL     1      49.883  56.303  19.740  1.00  0.00    -0.294 NA
ATOM      8  C   UNL     1      48.428  56.099  19.935  1.00  0.00    +0.113 C 
ATOM      9  C   UNL     1      50.338  57.490  20.503  1.00  0.00    +0.113 C 
ATOM     10  C   UNL     1      47.682  57.423  20.161  1.00  0.00    +0.175 C 
ATOM     11  C   UNL     1      49.455  57.821  21.718  1.00  0.00    +0.175 C 
ATOM     12  O   UNL     1      48.087  58.075  21.371  1.00  0.00    -0.379 OA
ENDBRANCH   5   7
ENDBRANCH   1   2
BRANCH   1  13
ATOM     13  C   UNL     1      52.407  50.828  18.683  1.00  0.00    +0.142 C 
BRANCH  13  14
ATOM     14  C   UNL     1      52.497  50.074  19.958  1.00  0.00    +0.239 C 
ATOM     15  N   UNL     1      52.641  48.767  19.905  1.00  0.00    -0.291 N 
ATOM     16  N   UNL     1      52.420  50.737  21.092  1.00  0.00    -0.291 N 
ATOM     17  H   UNL     1      52.702  48.190  20.735  1.00  0.00    +0.301 HD
ATOM     18  H   UNL     1      52.689  48.285  19.011  1.00  0.00    +0.301 HD
ATOM     19  H   UNL     1      52.468  50.276  21.993  1.00  0.00    +0.301 HD
ATOM     20  H   UNL     1      52.297  51.746  21.104  1.00  0.00    +0.301 HD
ENDBRANCH  13  14
ENDBRANCH   1  13
TORSDOF 4
ENDMDL
MODEL 4
REMARK VINA RESULT:    -5.774      6.042      8.757
REMARK INTER + INTRA:          -7.589
REMARK INTER:                  -7.393
REMARK INTRA:                  -0.196
REMARK UNBOUND:                -0.465
REMARK SMILES NC(=[NH2+])CCN1CC[C@@H](N2CCOCC2)C1
REMARK SMILES IDX 5 1 6 2 8 3 7 4 9 5 16 6 10 7 11 8 15 9 12 10 14 11 13 12
REMARK SMILES IDX 4 13 2 14 3 15 1 16
REMARK H PARENT 3 17 3 18 1 19 1 20
ROOT
ATOM      1  C   UNL     1      50.324  50.024  18.624  1.00  0.00    +0.097 C 
ENDROOT
BRANCH   1   2
ATOM      2  N   UNL     1      48.868  49.935  18.570  1.00  0.00    -0.301 NA
ATOM      3  C   UNL     1      46.914  50.211  17.220  1.00  0.00    +0.036 C 
ATOM      4  C   UNL     1      48.239  50.859  17.618  1.00  0.00    +0.086 C 
ATOM      5  C   UNL     1      46.906  48.830  17.892  1.00  0.00    +0.072 C 
ATOM      6  C   UNL     1      48.406  48.603  18.151  1.00  0.00    +0.103 C 
BRANCH   5   7
ATOM      7  N   UNL     1      46.246  47.791  17.085  1.00  0.00    -0.294 NA
ATOM      8  C   UNL     1      44.868  48.179  16.700  1.00  0.00    +0.113 C 
ATOM      9  C   UNL     1      47.021  47.402  15.883  1.00  0.00    +0.113 C 
ATOM     10  C   UNL     1      44.376  47.415  15.460  1.00  0.00    +0.175 C 
ATOM     11  C   UNL     1      46.510  48.045  14.583  1.00  0.00    +0.175 C 
ATOM     12  O   UNL     1      45.144  47.725  14.291  1.00  0.00    -0.379 OA
ENDBRANCH   5   7
ENDBRANCH   1   2
BRANCH   1  13
ATOM     13  C   UNL     1      50.863  49.650  20.008  1.00  0.00    +0.142 C 
BRANCH  13  14
ATOM     14  C   UNL     1      52.309  49.971  20.105  1.00  0.00    +0.239 C 
ATOM     15  N   UNL     1      52.727  50.682  21.129  1.00  0.00    -0.291 N 
ATOM     16  N   UNL     1      53.117  49.540  19.159  1.00  0.00    -0.291 N 
ATOM     17  H   UNL     1      53.698  50.943  21.254  1.00  0.00    +0.301 HD
ATOM     18  H   UNL     1      52.074  51.006  21.839  1.00  0.00    +0.301 HD
ATOM     19  H   UNL     1      54.111  49.733  19.167  1.00  0.00    +0.301 HD
ATOM     20  H   UNL     1      52.765  49.001  18.373  1.00  0.00    +0.301 HD
ENDBRANCH  13  14
ENDBRANCH   1  13
TORSDOF 4
ENDMDL
MODEL 5
REMARK VINA RESULT:    -5.754      6.041      8.543
REMARK INTER + INTRA:          -7.565
REMARK INTER:                  -7.358
REMARK INTRA:                  -0.207
REMARK UNBOUND:                -0.465
REMARK SMILES NC(=[NH2+])CCN1CC[C@@H](N2CCOCC2)C1
REMARK SMILES IDX 5 1 6 2 8 3 7 4 9 5 16 6 10 7 11 8 15 9 12 10 14 11 13 12
REMARK SMILES IDX 4 13 2 14 3 15 1 16
REMARK H PARENT 3 17 3 18 1 19 1 20
ROOT
ATOM      1  C   UNL     1      50.052  49.084  19.255  1.00  0.00    +0.097 C 
ENDROOT
BRANCH   1   2
ATOM      2  N   UNL     1      49.026  49.846  18.549  1.00  0.00    -0.301 NA
ATOM      3  C   UNL     1      48.150  50.489  16.420  1.00  0.00    +0.036 C 
ATOM      4  C   UNL     1      49.438  50.336  17.228  1.00  0.00    +0.086 C 
ATOM      5  C   UNL     1      47.028  49.935  17.311  1.00  0.00    +0.072 C 
ATOM      6  C   UNL     1      47.820  49.045  18.286  1.00  0.00    +0.103 C 
BRANCH   5   7
ATOM      7  N   UNL     1      45.968  49.248  16.557  1.00  0.00    -0.294 NA
ATOM      8  C   UNL     1      46.504  48.144  15.726  1.00  0.00    +0.113 C 
ATOM      9  C   UNL     1      44.866  48.750  17.416  1.00  0.00    +0.113 C 
ATOM     10  C   UNL     1      45.427  47.103  15.379  1.00  0.00    +0.175 C 
ATOM     11  C   UNL     1      44.949  47.245  17.719  1.00  0.00    +0.175 C 
ATOM     12  O   UNL     1      44.930  46.428  16.540  1.00  0.00    -0.379 OA
ENDBRANCH   5   7
ENDBRANCH   1   2
BRANCH   1  13
ATOM     13  C   UNL     1      50.562  49.832  20.490  1.00  0.00    +0.142 C 
BRANCH  13  14
ATOM     14  C   UNL     1      52.047  49.852  20.507  1.00  0.00    +0.239 C 
ATOM     15  N   UNL     1      52.654  50.791  21.200  1.00  0.00    -0.291 N 
ATOM     16  N   UNL     1      52.700  48.938  19.821  1.00  0.00    -0.291 N 
ATOM     17  H   UNL     1      53.663  50.868  21.249  1.00  0.00    +0.301 HD
ATOM     18  H   UNL     1      52.119  51.488  21.713  1.00  0.00    +0.301 HD
ATOM     19  H   UNL     1      53.711  48.905  19.789  1.00  0.00    +0.301 HD
ATOM     20  H   UNL     1      52.204  48.231  19.285  1.00  0.00    +0.301 HD
ENDBRANCH  13  14
ENDBRANCH   1  13
TORSDOF 4
ENDMDL
