MODEL 1
REMARK VINA RESULT:    -7.673      0.000      0.000
REMARK INTER + INTRA:         -14.327
REMARK INTER:                 -13.056
REMARK INTRA:                  -1.272
REMARK UNBOUND:                -1.272
REMARK SMILES CCOCCCNC(=S)NNC(=O)CCCCOc1cc(C)ccc1C
REMARK SMILES IDX 11 1 12 2 13 3 10 5 7 6 8 7 9 8 6 11 5 12 4 13 3 14 2 15
REMARK SMILES IDX 1 16 14 17 15 18 16 19 17 20 18 21 19 22 20 23 25 24 21 25
REMARK SMILES IDX 24 26 23 27 26 28 22 29
REMARK H PARENT 11 4 7 9 10 10
ROOT
ATOM      1  N   UNL     1      50.456  49.584  18.706  1.00  0.00    -0.268 N 
ATOM      2  C   UNL     1      51.035  49.569  19.962  1.00  0.00    +0.238 C 
ATOM      3  O   UNL     1      50.578  48.913  20.896  1.00  0.00    -0.273 OA
ATOM      4  H   UNL     1      50.660  50.333  18.047  1.00  0.00    +0.191 HD
ENDROOT
BRANCH   1   5
ATOM      5  N   UNL     1      49.176  49.003  18.591  1.00  0.00    -0.274 N 
ATOM      6  N   UNL     1      47.024  48.988  17.710  1.00  0.00    -0.361 N 
ATOM      7  C   UNL     1      48.304  49.446  17.628  1.00  0.00    +0.185 C 
ATOM      8  S   UNL     1      48.711  50.450  16.353  1.00  0.00    -0.039 S 
ATOM      9  H   UNL     1      46.400  49.373  17.008  1.00  0.00    +0.162 HD
ATOM     10  H   UNL     1      48.799  48.691  19.485  1.00  0.00    +0.190 HD
BRANCH   6  11
ATOM     11  C   UNL     1      46.450  48.131  18.736  1.00  0.00    +0.117 C 
BRANCH  11  12
ATOM     12  C   UNL     1      45.016  47.746  18.405  1.00  0.00    +0.050 C 
BRANCH  12  13
ATOM     13  C   UNL     1      44.913  47.148  17.005  1.00  0.00    +0.162 C 
BRANCH  13  14
ATOM     14  O   UNL     1      44.335  48.091  16.105  1.00  0.00    -0.382 OA
BRANCH  14  15
ATOM     15  C   UNL     1      44.627  47.847  14.730  1.00  0.00    +0.156 C 
ATOM     16  C   UNL     1      46.127  47.784  14.503  1.00  0.00    +0.035 C 
ENDBRANCH  14  15
ENDBRANCH  13  14
ENDBRANCH  12  13
ENDBRANCH  11  12
ENDBRANCH   6  11
ENDBRANCH   1   5
BRANCH   2  17
ATOM     17  C   UNL     1      52.271  50.441  20.051  1.00  0.00    +0.102 C 
BRANCH  17  18
ATOM     18  C   UNL     1      52.353  51.188  21.383  1.00  0.00    +0.013 C 
BRANCH  18  19
ATOM     19  C   UNL     1      51.194  52.159  21.604  1.00  0.00    +0.042 C 
BRANCH  19  20
ATOM     20  C   UNL     1      51.639  53.602  21.834  1.00  0.00    +0.229 C 
BRANCH  20  21
ATOM     21  O   UNL     1      51.417  54.321  20.622  1.00  0.00    -0.493 OA
BRANCH  21  22
ATOM     22  C   UNL     1      50.365  55.199  20.585  1.00  0.00    +0.122 A 
ATOM     23  C   UNL     1      50.250  56.345  21.381  1.00  0.00    +0.050 A 
ATOM     24  C   UNL     1      49.346  54.888  19.668  1.00  0.00    -0.009 A 
ATOM     25  C   UNL     1      49.135  57.190  21.270  1.00  0.00    -0.047 A 
ATOM     26  C   UNL     1      48.226  55.724  19.571  1.00  0.00    +0.007 A 
ATOM     27  C   UNL     1      48.119  56.863  20.369  1.00  0.00    +0.004 A 
ATOM     28  C   UNL     1      49.441  53.664  18.799  1.00  0.00    +0.048 C 
ATOM     29  C   UNL     1      49.009  58.397  22.151  1.00  0.00    +0.044 C 
ENDBRANCH  21  22
ENDBRANCH  20  21
ENDBRANCH  19  20
ENDBRANCH  18  19
ENDBRANCH  17  18
ENDBRANCH   2  17
TORSDOF 12
ENDMDL
MODEL 2
REMARK VINA RESULT:    -7.540      2.059      3.009
REMARK INTER + INTRA:         -14.101
REMARK INTER:                 -12.808
REMARK INTRA:                  -1.293
REMARK UNBOUND:                -1.272
REMARK SMILES CCOCCCNC(=S)NNC(=O)CCCCOc1cc(C)ccc1C
REMARK SMILES IDX 11 1 12 2 13 3 10 5 7 6 8 7 9 8 6 11 5 12 4 13 3 14 2 15
REMARK SMILES IDX 1 16 14 17 15 18 16 19 17 20 18 21 19 22 20 23 25 24 21 25
REMARK SMILES IDX 24 26 23 27 26 28 22 29
REMARK H PARENT 11 4 7 9 10 10
ROOT
ATOM      1  N   UNL     1      50.923  51.832  17.936  1.00  0.00    -0.268 N 
ATOM      2  C   UNL     1      52.235  51.499  18.219  1.00  0.00    +0.238 C 
ATOM      3  O   UNL     1      52.920  50.808  17.468  1.00  0.00    -0.273 OA
ATOM      4  H   UNL     1      50.293  52.143  18.675  1.00  0.00    +0.191 HD
ENDROOT
BRANCH   1   5
ATOM      5  N   UNL     1      50.313  51.154  16.861  1.00  0.00    -0.274 N 
ATOM      6  N   UNL     1      48.430  50.604  15.612  1.00  0.00    -0.361 N 
ATOM      7  C   UNL     1      49.015  51.438  16.516  1.00  0.00    +0.185 C 
ATOM      8  S   UNL     1      48.137  52.747  17.079  1.00  0.00    -0.039 S 
ATOM      9  H   UNL     1      47.458  50.820  15.417  1.00  0.00    +0.162 HD
ATOM     10  H   UNL     1      50.648  50.197  16.753  1.00  0.00    +0.190 HD
BRANCH   6  11
ATOM     11  C   UNL     1      48.994  49.405  15.013  1.00  0.00    +0.117 C 
BRANCH  11  12
ATOM     12  C   UNL     1      48.343  48.145  15.564  1.00  0.00    +0.050 C 
BRANCH  12  13
ATOM     13  C   UNL     1      48.653  47.965  17.047  1.00  0.00    +0.162 C 
BRANCH  13  14
ATOM     14  O   UNL     1      47.586  48.478  17.842  1.00  0.00    -0.382 OA
BRANCH  14  15
ATOM     15  C   UNL     1      46.312  47.899  17.563  1.00  0.00    +0.156 C 
ATOM     16  C   UNL     1      45.217  48.948  17.638  1.00  0.00    +0.035 C 
ENDBRANCH  14  15
ENDBRANCH  13  14
ENDBRANCH  12  13
ENDBRANCH  11  12
ENDBRANCH   6  11
ENDBRANCH   1   5
BRANCH   2  17
ATOM     17  C   UNL     1      52.717  52.069  19.538  1.00  0.00    +0.102 C 
BRANCH  17  18
ATOM     18  C   UNL     1      51.896  51.555  20.720  1.00  0.00    +0.013 C 
BRANCH  18  19
ATOM     19  C   UNL     1      51.271  52.673  21.554  1.00  0.00    +0.042 C 
BRANCH  19  20
ATOM     20  C   UNL     1      50.246  53.509  20.789  1.00  0.00    +0.229 C 
BRANCH  20  21
ATOM     21  O   UNL     1      50.836  54.780  20.523  1.00  0.00    -0.493 OA
BRANCH  21  22
ATOM     22  C   UNL     1      50.146  55.897  20.915  1.00  0.00    +0.122 A 
ATOM     23  C   UNL     1      48.868  56.249  20.463  1.00  0.00    +0.050 A 
ATOM     24  C   UNL     1      50.805  56.725  21.840  1.00  0.00    -0.009 A 
ATOM     25  C   UNL     1      48.236  57.413  20.925  1.00  0.00    -0.047 A 
ATOM     26  C   UNL     1      50.178  57.896  22.288  1.00  0.00    +0.007 A 
ATOM     27  C   UNL     1      48.906  58.240  21.830  1.00  0.00    +0.004 A 
ATOM     28  C   UNL     1      52.177  56.374  22.346  1.00  0.00    +0.048 C 
ATOM     29  C   UNL     1      46.881  57.796  20.408  1.00  0.00    +0.044 C 
ENDBRANCH  21  22
ENDBRANCH  20  21
ENDBRANCH  19  20
ENDBRANCH  18  19
ENDBRANCH  17  18
ENDBRANCH   2  17
TORSDOF 12
ENDMDL
MODEL 3
REMARK VINA RESULT:    -7.119      3.516      8.273
REMARK INTER + INTRA:         -13.385
REMARK INTER:                 -12.278
REMARK INTRA:                  -1.107
REMARK UNBOUND:                -1.272
REMARK SMILES CCOCCCNC(=S)NNC(=O)CCCCOc1cc(C)ccc1C
REMARK SMILES IDX 11 1 12 2 13 3 10 5 7 6 8 7 9 8 6 11 5 12 4 13 3 14 2 15
REMARK SMILES IDX 1 16 14 17 15 18 16 19 17 20 18 21 19 22 20 23 25 24 21 25
REMARK SMILES IDX 24 26 23 27 26 28 22 29
REMARK H PARENT 11 4 7 9 10 10
ROOT
ATOM      1  N   UNL     1      50.959  54.235  21.606  1.00  0.00    -0.268 N 
ATOM      2  C   UNL     1      50.567  53.140  20.856  1.00  0.00    +0.238 C 
ATOM      3  O   UNL     1      49.798  53.232  19.902  1.00  0.00    -0.273 OA
ATOM      4  H   UNL     1      51.344  54.115  22.542  1.00  0.00    +0.191 HD
ENDROOT
BRANCH   1   5
ATOM      5  N   UNL     1      50.260  55.439  21.385  1.00  0.00    -0.274 N 
ATOM      6  N   UNL     1      50.221  57.681  20.767  1.00  0.00    -0.361 N 
ATOM      7  C   UNL     1      50.883  56.490  20.760  1.00  0.00    +0.185 C 
ATOM      8  S   UNL     1      52.349  56.399  19.957  1.00  0.00    -0.039 S 
ATOM      9  H   UNL     1      50.733  58.443  20.335  1.00  0.00    +0.162 HD
ATOM     10  H   UNL     1      49.574  55.640  22.112  1.00  0.00    +0.190 HD
BRANCH   6  11
ATOM     11  C   UNL     1      48.956  57.991  21.416  1.00  0.00    +0.117 C 
BRANCH  11  12
ATOM     12  C   UNL     1      47.771  57.550  20.570  1.00  0.00    +0.050 C 
BRANCH  12  13
ATOM     13  C   UNL     1      47.861  58.114  19.156  1.00  0.00    +0.162 C 
BRANCH  13  14
ATOM     14  O   UNL     1      48.053  59.526  19.196  1.00  0.00    -0.382 OA
BRANCH  14  15
ATOM     15  C   UNL     1      46.953  60.284  18.694  1.00  0.00    +0.156 C 
ATOM     16  C   UNL     1      46.798  61.581  19.468  1.00  0.00    +0.035 C 
ENDBRANCH  14  15
ENDBRANCH  13  14
ENDBRANCH  12  13
ENDBRANCH  11  12
ENDBRANCH   6  11
ENDBRANCH   1   5
BRANCH   2  17
ATOM     17  C   UNL     1      51.178  51.843  21.344  1.00  0.00    +0.102 C 
BRANCH  17  18
ATOM     18  C   UNL     1      52.356  51.400  20.476  1.00  0.00    +0.013 C 
BRANCH  18  19
ATOM     19  C   UNL     1      51.983  50.327  19.454  1.00  0.00    +0.042 C 
BRANCH  19  20
ATOM     20  C   UNL     1      50.545  49.827  19.586  1.00  0.00    +0.229 C 
BRANCH  20  21
ATOM     21  O   UNL     1      50.049  49.586  18.270  1.00  0.00    -0.493 OA
BRANCH  21  22
ATOM     22  C   UNL     1      48.689  49.534  18.101  1.00  0.00    +0.122 A 
ATOM     23  C   UNL     1      47.854  48.543  18.631  1.00  0.00    +0.050 A 
ATOM     24  C   UNL     1      48.133  50.571  17.333  1.00  0.00    -0.009 A 
ATOM     25  C   UNL     1      46.469  48.575  18.409  1.00  0.00    -0.047 A 
ATOM     26  C   UNL     1      46.751  50.592  17.099  1.00  0.00    +0.007 A 
ATOM     27  C   UNL     1      45.927  49.599  17.628  1.00  0.00    +0.004 A 
ATOM     28  C   UNL     1      49.004  51.651  16.751  1.00  0.00    +0.048 C 
ATOM     29  C   UNL     1      45.589  47.490  18.954  1.00  0.00    +0.044 C 
ENDBRANCH  21  22
ENDBRANCH  20  21
ENDBRANCH  19  20
ENDBRANCH  18  19
ENDBRANCH  17  18
ENDBRANCH   2  17
TORSDOF 12
ENDMDL
MODEL 4
REMARK VINA RESULT:    -6.912      2.545      3.674
REMARK INTER + INTRA:         -13.033
REMARK INTER:                 -11.777
REMARK INTRA:                  -1.256
REMARK UNBOUND:                -1.272
REMARK SMILES CCOCCCNC(=S)NNC(=O)CCCCOc1cc(C)ccc1C
REMARK SMILES IDX 11 1 12 2 13 3 10 5 7 6 8 7 9 8 6 11 5 12 4 13 3 14 2 15
REMARK SMILES IDX 1 16 14 17 15 18 16 19 17 20 18 21 19 22 20 23 25 24 21 25
REMARK SMILES IDX 24 26 23 27 26 28 22 29
REMARK H PARENT 11 4 7 9 10 10
ROOT
ATOM      1  N   UNL     1      51.220  52.623  20.071  1.00  0.00    -0.268 N 
ATOM      2  C   UNL     1      51.087  53.007  21.393  1.00  0.00    +0.238 C 
ATOM      3  O   UNL     1      50.521  52.309  22.232  1.00  0.00    -0.273 OA
ATOM      4  H   UNL     1      51.418  53.312  19.346  1.00  0.00    +0.191 HD
ENDROOT
BRANCH   1   5
ATOM      5  N   UNL     1      50.474  51.501  19.658  1.00  0.00    -0.274 N 
ATOM      6  N   UNL     1      50.359  49.335  18.817  1.00  0.00    -0.361 N 
ATOM      7  C   UNL     1      51.107  50.309  19.408  1.00  0.00    +0.185 C 
ATOM      8  S   UNL     1      52.690  49.957  19.820  1.00  0.00    -0.039 S 
ATOM      9  H   UNL     1      50.874  48.486  18.608  1.00  0.00    +0.162 HD
ATOM     10  H   UNL     1      49.660  51.748  19.096  1.00  0.00    +0.190 HD
BRANCH   6  11
ATOM     11  C   UNL     1      48.982  49.427  18.358  1.00  0.00    +0.117 C 
BRANCH  11  12
ATOM     12  C   UNL     1      48.604  48.242  17.481  1.00  0.00    +0.050 C 
BRANCH  12  13
ATOM     13  C   UNL     1      47.765  48.683  16.286  1.00  0.00    +0.162 C 
BRANCH  13  14
ATOM     14  O   UNL     1      48.494  48.498  15.074  1.00  0.00    -0.382 OA
BRANCH  14  15
ATOM     15  C   UNL     1      49.095  49.685  14.561  1.00  0.00    +0.156 C 
ATOM     16  C   UNL     1      50.585  49.486  14.351  1.00  0.00    +0.035 C 
ENDBRANCH  14  15
ENDBRANCH  13  14
ENDBRANCH  12  13
ENDBRANCH  11  12
ENDBRANCH   6  11
ENDBRANCH   1   5
BRANCH   2  17
ATOM     17  C   UNL     1      51.702  54.362  21.678  1.00  0.00    +0.102 C 
BRANCH  17  18
ATOM     18  C   UNL     1      51.908  55.179  20.403  1.00  0.00    +0.013 C 
BRANCH  18  19
ATOM     19  C   UNL     1      51.362  56.603  20.503  1.00  0.00    +0.042 C 
BRANCH  19  20
ATOM     20  C   UNL     1      50.170  56.738  21.449  1.00  0.00    +0.229 C 
BRANCH  20  21
ATOM     21  O   UNL     1      49.009  56.298  20.746  1.00  0.00    -0.493 OA
BRANCH  21  22
ATOM     22  C   UNL     1      48.481  57.137  19.799  1.00  0.00    +0.122 A 
ATOM     23  C   UNL     1      48.034  58.441  20.045  1.00  0.00    +0.050 A 
ATOM     24  C   UNL     1      48.401  56.611  18.498  1.00  0.00    -0.009 A 
ATOM     25  C   UNL     1      47.512  59.230  19.009  1.00  0.00    -0.047 A 
ATOM     26  C   UNL     1      47.864  57.396  17.468  1.00  0.00    +0.007 A 
ATOM     27  C   UNL     1      47.418  58.693  17.723  1.00  0.00    +0.004 A 
ATOM     28  C   UNL     1      48.875  55.215  18.202  1.00  0.00    +0.048 C 
ATOM     29  C   UNL     1      47.005  60.613  19.291  1.00  0.00    +0.044 C 
ENDBRANCH  21  22
ENDBRANCH  20  21
ENDBRANCH  19  20
ENDBRANCH  18  19
ENDBRANCH  17  18
ENDBRANCH   2  17
TORSDOF 12
ENDMDL
MODEL 5
REMARK VINA RESULT:    -6.912      2.819      9.016
REMARK INTER + INTRA:         -13.032
REMARK INTER:                 -11.873
REMARK INTRA:                  -1.160
REMARK UNBOUND:                -1.272
REMARK SMILES CCOCCCNC(=S)NNC(=O)CCCCOc1cc(C)ccc1C
REMARK SMILES IDX 11 1 12 2 13 3 10 5 7 6 8 7 9 8 6 11 5 12 4 13 3 14 2 15
REMARK SMILES IDX 1 16 14 17 15 18 16 19 17 20 18 21 19 22 20 23 25 24 21 25
REMARK SMILES IDX 24 26 23 27 26 28 22 29
REMARK H PARENT 11 4 7 9 10 10
ROOT
ATOM      1  N   UNL     1      50.502  52.980  18.236  1.00  0.00    -0.268 N 
ATOM      2  C   UNL     1      49.182  53.356  18.057  1.00  0.00    +0.238 C 
ATOM      3  O   UNL     1      48.788  54.504  18.244  1.00  0.00    -0.273 OA
ATOM      4  H   UNL     1      50.752  52.001  18.364  1.00  0.00    +0.191 HD
ENDROOT
BRANCH   1   5
ATOM      5  N   UNL     1      51.345  53.913  18.873  1.00  0.00    -0.274 N 
ATOM      6  N   UNL     1      52.273  54.829  20.799  1.00  0.00    -0.361 N 
ATOM      7  C   UNL     1      51.627  53.784  20.210  1.00  0.00    +0.185 C 
ATOM      8  S   UNL     1      51.285  52.434  21.138  1.00  0.00    -0.039 S 
ATOM      9  H   UNL     1      52.423  54.716  21.796  1.00  0.00    +0.162 HD
ATOM     10  H   UNL     1      51.273  54.850  18.477  1.00  0.00    +0.190 HD
BRANCH   6  11
ATOM     11  C   UNL     1      52.646  56.099  20.194  1.00  0.00    +0.117 C 
BRANCH  11  12
ATOM     12  C   UNL     1      52.533  57.246  21.187  1.00  0.00    +0.050 C 
BRANCH  12  13
ATOM     13  C   UNL     1      51.078  57.651  21.401  1.00  0.00    +0.162 C 
BRANCH  13  14
ATOM     14  O   UNL     1      50.228  56.939  20.504  1.00  0.00    -0.382 OA
BRANCH  14  15
ATOM     15  C   UNL     1      48.839  57.027  20.815  1.00  0.00    +0.156 C 
ATOM     16  C   UNL     1      48.552  58.265  21.646  1.00  0.00    +0.035 C 
ENDBRANCH  14  15
ENDBRANCH  13  14
ENDBRANCH  12  13
ENDBRANCH  11  12
ENDBRANCH   6  11
ENDBRANCH   1   5
BRANCH   2  17
ATOM     17  C   UNL     1      48.297  52.206  17.618  1.00  0.00    +0.102 C 
BRANCH  17  18
ATOM     18  C   UNL     1      48.339  51.995  16.104  1.00  0.00    +0.013 C 
BRANCH  18  19
ATOM     19  C   UNL     1      49.000  50.679  15.696  1.00  0.00    +0.042 C 
BRANCH  19  20
ATOM     20  C   UNL     1      49.401  49.801  16.880  1.00  0.00    +0.229 C 
BRANCH  20  21
ATOM     21  O   UNL     1      48.893  48.489  16.636  1.00  0.00    -0.493 OA
BRANCH  21  22
ATOM     22  C   UNL     1      47.577  48.373  16.275  1.00  0.00    +0.122 A 
ATOM     23  C   UNL     1      47.118  48.210  14.962  1.00  0.00    +0.050 A 
ATOM     24  C   UNL     1      46.650  48.425  17.330  1.00  0.00    -0.009 A 
ATOM     25  C   UNL     1      45.747  48.094  14.687  1.00  0.00    -0.047 A 
ATOM     26  C   UNL     1      45.280  48.326  17.051  1.00  0.00    +0.007 A 
ATOM     27  C   UNL     1      44.832  48.167  15.740  1.00  0.00    +0.004 A 
ATOM     28  C   UNL     1      47.111  48.598  18.751  1.00  0.00    +0.048 C 
ATOM     29  C   UNL     1      45.267  47.954  13.273  1.00  0.00    +0.044 C 
ENDBRANCH  21  22
ENDBRANCH  20  21
ENDBRANCH  19  20
ENDBRANCH  18  19
ENDBRANCH  17  18
ENDBRANCH   2  17
TORSDOF 12
ENDMDL
