MODEL 1
REMARK VINA RESULT:    -6.021      0.000      0.000
REMARK INTER + INTRA:         -10.001
REMARK INTER:                  -9.014
REMARK INTRA:                  -0.988
REMARK UNBOUND:                -0.988
REMARK SMILES CCN(CC(=O)NCCCOC)c1ccc(N)cc1
REMARK SMILES IDX 5 1 6 2 7 3 4 5 3 6 2 7 1 8 13 9 14 10 19 11 15 12 18 13
REMARK SMILES IDX 16 14 17 15 8 18 9 19 10 20 11 21 12 22
REMARK H PARENT 7 4 17 16 17 17
ROOT
ATOM      1  C   UNL     1      48.820  52.564  17.469  1.00  0.00    +0.239 C 
ATOM      2  O   UNL     1      48.955  53.784  17.512  1.00  0.00    -0.273 OA
ATOM      3  N   UNL     1      49.778  51.671  17.901  1.00  0.00    -0.354 N 
ATOM      4  H   UNL     1      49.592  50.699  17.657  1.00  0.00    +0.163 HD
ENDROOT
BRANCH   1   5
ATOM      5  C   UNL     1      47.538  51.887  16.958  1.00  0.00    +0.216 C 
BRANCH   5   6
ATOM      6  N   UNL     1      47.804  50.467  16.574  1.00  0.00    -0.362 N 
BRANCH   6   7
ATOM      7  C   UNL     1      48.242  50.296  15.176  1.00  0.00    +0.114 C 
ATOM      8  C   UNL     1      49.329  49.235  15.062  1.00  0.00    +0.027 C 
ENDBRANCH   6   7
BRANCH   6   9
ATOM      9  C   UNL     1      46.937  49.539  17.164  1.00  0.00    +0.037 A 
ATOM     10  C   UNL     1      45.722  49.139  16.596  1.00  0.00    +0.028 A 
ATOM     11  C   UNL     1      47.284  48.947  18.390  1.00  0.00    +0.028 A 
ATOM     12  C   UNL     1      44.894  48.194  17.222  1.00  0.00    +0.027 A 
ATOM     13  C   UNL     1      46.459  48.003  19.016  1.00  0.00    +0.027 A 
ATOM     14  C   UNL     1      45.278  47.580  18.411  1.00  0.00    +0.031 A 
BRANCH  14  15
ATOM     15  N   UNL     1      44.399  46.731  19.087  1.00  0.00    -0.399 N 
ATOM     16  H   UNL     1      44.099  45.931  18.538  1.00  0.00    +0.156 HD
ATOM     17  H   UNL     1      43.619  47.210  19.525  1.00  0.00    +0.156 HD
ENDBRANCH  14  15
ENDBRANCH   6   9
ENDBRANCH   5   6
ENDBRANCH   1   5
BRANCH   3  18
ATOM     18  C   UNL     1      51.103  52.075  18.313  1.00  0.00    +0.118 C 
BRANCH  18  19
ATOM     19  C   UNL     1      52.029  50.873  18.478  1.00  0.00    +0.050 C 
BRANCH  19  20
ATOM     20  C   UNL     1      52.172  50.469  19.940  1.00  0.00    +0.161 C 
BRANCH  20  21
ATOM     21  O   UNL     1      50.876  50.273  20.503  1.00  0.00    -0.385 OA
ATOM     22  C   UNL     1      50.479  48.909  20.440  1.00  0.00    +0.194 C 
ENDBRANCH  20  21
ENDBRANCH  19  20
ENDBRANCH  18  19
ENDBRANCH   3  18
TORSDOF 9
ENDMDL
MODEL 2
REMARK VINA RESULT:    -5.959      2.251      2.614
REMARK INTER + INTRA:          -9.908
REMARK INTER:                  -9.261
REMARK INTRA:                  -0.647
REMARK UNBOUND:                -0.988
REMARK SMILES CCN(CC(=O)NCCCOC)c1ccc(N)cc1
REMARK SMILES IDX 5 1 6 2 7 3 4 5 3 6 2 7 1 8 13 9 14 10 19 11 15 12 18 13
REMARK SMILES IDX 16 14 17 15 8 18 9 19 10 20 11 21 12 22
REMARK H PARENT 7 4 17 16 17 17
ROOT
ATOM      1  C   UNL     1      49.537  52.077  17.971  1.00  0.00    +0.239 C 
ATOM      2  O   UNL     1      50.418  51.226  18.060  1.00  0.00    -0.273 OA
ATOM      3  N   UNL     1      49.670  53.369  18.436  1.00  0.00    -0.354 N 
ATOM      4  H   UNL     1      48.806  53.910  18.436  1.00  0.00    +0.163 HD
ENDROOT
BRANCH   1   5
ATOM      5  C   UNL     1      48.187  51.808  17.289  1.00  0.00    +0.216 C 
BRANCH   5   6
ATOM      6  N   UNL     1      48.160  50.439  16.687  1.00  0.00    -0.362 N 
BRANCH   6   7
ATOM      7  C   UNL     1      48.422  50.416  15.236  1.00  0.00    +0.114 C 
ATOM      8  C   UNL     1      49.428  49.333  14.872  1.00  0.00    +0.027 C 
ENDBRANCH   6   7
BRANCH   6   9
ATOM      9  C   UNL     1      47.206  49.582  17.249  1.00  0.00    +0.037 A 
ATOM     10  C   UNL     1      45.952  49.332  16.679  1.00  0.00    +0.028 A 
ATOM     11  C   UNL     1      47.497  48.908  18.447  1.00  0.00    +0.028 A 
ATOM     12  C   UNL     1      45.035  48.453  17.275  1.00  0.00    +0.027 A 
ATOM     13  C   UNL     1      46.583  48.030  19.044  1.00  0.00    +0.027 A 
ATOM     14  C   UNL     1      45.362  47.755  18.435  1.00  0.00    +0.031 A 
BRANCH  14  15
ATOM     15  N   UNL     1      44.404  46.974  19.086  1.00  0.00    -0.399 N 
ATOM     16  H   UNL     1      43.538  46.869  18.565  1.00  0.00    +0.156 HD
ATOM     17  H   UNL     1      44.241  47.243  20.051  1.00  0.00    +0.156 HD
ENDBRANCH  14  15
ENDBRANCH   6   9
ENDBRANCH   5   6
ENDBRANCH   1   5
BRANCH   3  18
ATOM     18  C   UNL     1      50.805  53.815  19.211  1.00  0.00    +0.118 C 
BRANCH  18  19
ATOM     19  C   UNL     1      50.392  54.235  20.619  1.00  0.00    +0.050 C 
BRANCH  19  20
ATOM     20  C   UNL     1      51.353  53.698  21.672  1.00  0.00    +0.161 C 
BRANCH  20  21
ATOM     21  O   UNL     1      52.064  54.786  22.260  1.00  0.00    -0.385 OA
ATOM     22  C   UNL     1      51.314  55.992  22.204  1.00  0.00    +0.194 C 
ENDBRANCH  20  21
ENDBRANCH  19  20
ENDBRANCH  18  19
ENDBRANCH   3  18
TORSDOF 9
ENDMDL
MODEL 3
REMARK VINA RESULT:    -5.677      2.626      5.664
REMARK INTER + INTRA:          -9.485
REMARK INTER:                  -8.786
REMARK INTRA:                  -0.700
REMARK UNBOUND:                -0.988
REMARK SMILES CCN(CC(=O)NCCCOC)c1ccc(N)cc1
REMARK SMILES IDX 5 1 6 2 7 3 4 5 3 6 2 7 1 8 13 9 14 10 19 11 15 12 18 13
REMARK SMILES IDX 16 14 17 15 8 18 9 19 10 20 11 21 12 22
REMARK H PARENT 7 4 17 16 17 17
ROOT
ATOM      1  C   UNL     1      48.527  49.748  15.133  1.00  0.00    +0.239 C 
ATOM      2  O   UNL     1      48.489  49.780  13.905  1.00  0.00    -0.273 OA
ATOM      3  N   UNL     1      47.884  48.795  15.895  1.00  0.00    -0.354 N 
ATOM      4  H   UNL     1      47.874  48.989  16.895  1.00  0.00    +0.163 HD
ENDROOT
BRANCH   1   5
ATOM      5  C   UNL     1      49.338  50.754  15.965  1.00  0.00    +0.216 C 
BRANCH   5   6
ATOM      6  N   UNL     1      48.701  50.973  17.300  1.00  0.00    -0.362 N 
BRANCH   6   7
ATOM      7  C   UNL     1      47.582  51.933  17.280  1.00  0.00    +0.114 C 
ATOM      8  C   UNL     1      47.915  53.155  16.436  1.00  0.00    +0.027 C 
ENDBRANCH   6   7
BRANCH   6   9
ATOM      9  C   UNL     1      49.597  50.950  18.376  1.00  0.00    +0.037 A 
ATOM     10  C   UNL     1      50.311  52.070  18.817  1.00  0.00    +0.028 A 
ATOM     11  C   UNL     1      49.804  49.754  19.083  1.00  0.00    +0.028 A 
ATOM     12  C   UNL     1      51.188  51.999  19.910  1.00  0.00    +0.027 A 
ATOM     13  C   UNL     1      50.678  49.681  20.175  1.00  0.00    +0.027 A 
ATOM     14  C   UNL     1      51.342  50.817  20.630  1.00  0.00    +0.031 A 
BRANCH  14  15
ATOM     15  N   UNL     1      52.302  50.721  21.641  1.00  0.00    -0.399 N 
ATOM     16  H   UNL     1      53.166  50.277  21.344  1.00  0.00    +0.156 HD
ATOM     17  H   UNL     1      51.948  50.330  22.508  1.00  0.00    +0.156 HD
ENDBRANCH  14  15
ENDBRANCH   6   9
ENDBRANCH   5   6
ENDBRANCH   1   5
BRANCH   3  18
ATOM     18  C   UNL     1      46.974  47.822  15.335  1.00  0.00    +0.118 C 
BRANCH  18  19
ATOM     19  C   UNL     1      45.519  48.189  15.616  1.00  0.00    +0.050 C 
BRANCH  19  20
ATOM     20  C   UNL     1      45.367  48.908  16.951  1.00  0.00    +0.161 C 
BRANCH  20  21
ATOM     21  O   UNL     1      44.514  48.145  17.802  1.00  0.00    -0.385 OA
ATOM     22  C   UNL     1      45.259  47.401  18.759  1.00  0.00    +0.194 C 
ENDBRANCH  20  21
ENDBRANCH  19  20
ENDBRANCH  18  19
ENDBRANCH   3  18
TORSDOF 9
ENDMDL
MODEL 4
REMARK VINA RESULT:    -5.637      3.313      6.692
REMARK INTER + INTRA:          -9.426
REMARK INTER:                  -8.817
REMARK INTRA:                  -0.609
REMARK UNBOUND:                -0.988
REMARK SMILES CCN(CC(=O)NCCCOC)c1ccc(N)cc1
REMARK SMILES IDX 5 1 6 2 7 3 4 5 3 6 2 7 1 8 13 9 14 10 19 11 15 12 18 13
REMARK SMILES IDX 16 14 17 15 8 18 9 19 10 20 11 21 12 22
REMARK H PARENT 7 4 17 16 17 17
ROOT
ATOM      1  C   UNL     1      50.163  51.028  19.106  1.00  0.00    +0.239 C 
ATOM      2  O   UNL     1      50.617  50.717  20.205  1.00  0.00    -0.273 OA
ATOM      3  N   UNL     1      49.292  50.238  18.386  1.00  0.00    -0.354 N 
ATOM      4  H   UNL     1      49.129  50.551  17.430  1.00  0.00    +0.163 HD
ENDROOT
BRANCH   1   5
ATOM      5  C   UNL     1      50.488  52.364  18.421  1.00  0.00    +0.216 C 
BRANCH   5   6
ATOM      6  N   UNL     1      49.366  53.337  18.596  1.00  0.00    -0.362 N 
BRANCH   6   7
ATOM      7  C   UNL     1      48.631  53.634  17.353  1.00  0.00    +0.114 C 
ATOM      8  C   UNL     1      47.332  52.843  17.274  1.00  0.00    +0.027 C 
ENDBRANCH   6   7
BRANCH   6   9
ATOM      9  C   UNL     1      49.622  54.350  19.528  1.00  0.00    +0.037 A 
ATOM     10  C   UNL     1      50.756  54.383  20.348  1.00  0.00    +0.028 A 
ATOM     11  C   UNL     1      48.717  55.416  19.663  1.00  0.00    +0.028 A 
ATOM     12  C   UNL     1      50.975  55.429  21.258  1.00  0.00    +0.027 A 
ATOM     13  C   UNL     1      48.934  56.461  20.570  1.00  0.00    +0.027 A 
ATOM     14  C   UNL     1      50.092  56.502  21.341  1.00  0.00    +0.031 A 
BRANCH  14  15
ATOM     15  N   UNL     1      50.253  57.478  22.329  1.00  0.00    -0.399 N 
ATOM     16  H   UNL     1      50.198  58.429  21.977  1.00  0.00    +0.156 HD
ATOM     17  H   UNL     1      51.064  57.334  22.921  1.00  0.00    +0.156 HD
ENDBRANCH  14  15
ENDBRANCH   6   9
ENDBRANCH   5   6
ENDBRANCH   1   5
BRANCH   3  18
ATOM     18  C   UNL     1      48.938  48.893  18.780  1.00  0.00    +0.118 C 
BRANCH  18  19
ATOM     19  C   UNL     1      47.425  48.692  18.791  1.00  0.00    +0.050 C 
BRANCH  19  20
ATOM     20  C   UNL     1      46.764  49.330  17.575  1.00  0.00    +0.161 C 
BRANCH  20  21
ATOM     21  O   UNL     1      45.352  49.140  17.653  1.00  0.00    -0.385 OA
ATOM     22  C   UNL     1      45.024  47.908  18.283  1.00  0.00    +0.194 C 
ENDBRANCH  20  21
ENDBRANCH  19  20
ENDBRANCH  18  19
ENDBRANCH   3  18
TORSDOF 9
ENDMDL
MODEL 5
REMARK VINA RESULT:    -5.514      3.096      6.143
REMARK INTER + INTRA:          -9.242
REMARK INTER:                  -8.129
REMARK INTRA:                  -1.113
REMARK UNBOUND:                -0.988
REMARK SMILES CCN(CC(=O)NCCCOC)c1ccc(N)cc1
REMARK SMILES IDX 5 1 6 2 7 3 4 5 3 6 2 7 1 8 13 9 14 10 19 11 15 12 18 13
REMARK SMILES IDX 16 14 17 15 8 18 9 19 10 20 11 21 12 22
REMARK H PARENT 7 4 17 16 17 17
ROOT
ATOM      1  C   UNL     1      49.574  54.879  18.709  1.00  0.00    +0.239 C 
ATOM      2  O   UNL     1      48.715  55.672  19.083  1.00  0.00    -0.273 OA
ATOM      3  N   UNL     1      49.325  53.826  17.853  1.00  0.00    -0.354 N 
ATOM      4  H   UNL     1      50.095  53.164  17.761  1.00  0.00    +0.163 HD
ENDROOT
BRANCH   1   5
ATOM      5  C   UNL     1      51.049  54.993  19.127  1.00  0.00    +0.216 C 
BRANCH   5   6
ATOM      6  N   UNL     1      51.281  54.326  20.445  1.00  0.00    -0.362 N 
BRANCH   6   7
ATOM      7  C   UNL     1      51.957  55.179  21.439  1.00  0.00    +0.114 C 
ATOM      8  C   UNL     1      50.986  56.166  22.073  1.00  0.00    +0.027 C 
ENDBRANCH   6   7
BRANCH   6   9
ATOM      9  C   UNL     1      51.590  52.963  20.352  1.00  0.00    +0.037 A 
ATOM     10  C   UNL     1      51.139  52.000  21.263  1.00  0.00    +0.028 A 
ATOM     11  C   UNL     1      52.383  52.500  19.289  1.00  0.00    +0.028 A 
ATOM     12  C   UNL     1      51.465  50.643  21.119  1.00  0.00    +0.027 A 
ATOM     13  C   UNL     1      52.708  51.145  19.143  1.00  0.00    +0.027 A 
ATOM     14  C   UNL     1      52.210  50.196  20.031  1.00  0.00    +0.031 A 
BRANCH  14  15
ATOM     15  N   UNL     1      52.629  48.865  19.956  1.00  0.00    -0.399 N 
ATOM     16  H   UNL     1      51.867  48.201  19.863  1.00  0.00    +0.156 HD
ATOM     17  H   UNL     1      53.284  48.599  20.684  1.00  0.00    +0.156 HD
ENDBRANCH  14  15
ENDBRANCH   6   9
ENDBRANCH   5   6
ENDBRANCH   1   5
BRANCH   3  18
ATOM     18  C   UNL     1      47.996  53.458  17.424  1.00  0.00    +0.118 C 
BRANCH  18  19
ATOM     19  C   UNL     1      47.960  52.036  16.870  1.00  0.00    +0.050 C 
BRANCH  19  20
ATOM     20  C   UNL     1      49.302  51.334  17.034  1.00  0.00    +0.161 C 
BRANCH  20  21
ATOM     21  O   UNL     1      49.324  50.646  18.284  1.00  0.00    -0.385 OA
ATOM     22  C   UNL     1      48.432  49.538  18.287  1.00  0.00    +0.194 C 
ENDBRANCH  20  21
ENDBRANCH  19  20
ENDBRANCH  18  19
ENDBRANCH   3  18
TORSDOF 9
ENDMDL
