MODEL 1
REMARK VINA RESULT:    -8.168      0.000      0.000
REMARK INTER + INTRA:         -11.450
REMARK INTER:                 -10.794
REMARK INTRA:                  -0.656
REMARK UNBOUND:                -0.656
REMARK SMILES CC(C)Cc1ccc(S(=O)(=O)N[C@@H]2CCC[C@@H]2[NH3+])cc1
REMARK SMILES IDX 9 1 10 2 11 3 8 4 5 5 6 6 20 7 7 8 19 9 4 10 2 11 1 12 3 13
REMARK SMILES IDX 12 14 13 16 14 17 17 18 15 19 16 20 18 21
REMARK H PARENT 12 15 18 22 18 23 18 24
ROOT
ATOM      1  S   UNL     1      51.581  54.703  21.529  1.00  0.00    +0.241 S 
ATOM      2  O   UNL     1      52.612  54.838  20.526  1.00  0.00    -0.207 OA
ATOM      3  O   UNL     1      51.830  54.693  22.957  1.00  0.00    -0.207 OA
ENDROOT
BRANCH   1   4
ATOM      4  C   UNL     1      50.260  55.819  21.174  1.00  0.00    +0.082 A 
ATOM      5  C   UNL     1      48.169  57.603  20.628  1.00  0.00    -0.048 A 
ATOM      6  C   UNL     1      48.216  56.343  20.007  1.00  0.00    +0.005 A 
ATOM      7  C   UNL     1      49.181  57.955  21.535  1.00  0.00    +0.005 A 
ATOM      8  C   UNL     1      49.256  55.448  20.277  1.00  0.00    +0.022 A 
ATOM      9  C   UNL     1      50.220  57.063  21.816  1.00  0.00    +0.022 A 
BRANCH   5  10
ATOM     10  C   UNL     1      47.035  58.560  20.326  1.00  0.00    +0.038 C 
BRANCH  10  11
ATOM     11  C   UNL     1      47.368  59.647  19.281  1.00  0.00    -0.013 C 
ATOM     12  C   UNL     1      47.196  59.066  17.874  1.00  0.00    +0.008 C 
ATOM     13  C   UNL     1      46.484  60.892  19.437  1.00  0.00    +0.008 C 
ENDBRANCH  10  11
ENDBRANCH   5  10
ENDBRANCH   1   4
BRANCH   1  14
ATOM     14  N   UNL     1      50.843  53.174  21.241  1.00  0.00    -0.202 NA
ATOM     15  H   UNL     1      49.856  53.393  21.021  1.00  0.00    +0.141 HD
BRANCH  14  16
ATOM     16  C   UNL     1      51.436  52.444  20.053  1.00  0.00    +0.128 C 
ATOM     17  C   UNL     1      50.320  51.657  19.357  1.00  0.00    +0.026 C 
ATOM     18  C   UNL     1      52.479  51.373  20.466  1.00  0.00    +0.199 C 
ATOM     19  C   UNL     1      50.872  50.268  19.041  1.00  0.00    +0.008 C 
ATOM     20  C   UNL     1      52.357  50.303  19.394  1.00  0.00    +0.067 C 
BRANCH  18  21
ATOM     21  N   UNL     1      52.119  50.811  21.810  1.00  0.00    -0.354 N 
ATOM     22  H   UNL     1      52.918  50.341  22.262  1.00  0.00    +0.344 HD
ATOM     23  H   UNL     1      51.311  50.176  21.786  1.00  0.00    +0.344 HD
ATOM     24  H   UNL     1      51.859  51.610  22.413  1.00  0.00    +0.344 HD
ENDBRANCH  18  21
ENDBRANCH  14  16
ENDBRANCH   1  14
TORSDOF 6
ENDMDL
MODEL 2
REMARK VINA RESULT:    -7.814      3.365      4.894
REMARK INTER + INTRA:         -10.982
REMARK INTER:                 -10.175
REMARK INTRA:                  -0.807
REMARK UNBOUND:                -0.656
REMARK SMILES CC(C)Cc1ccc(S(=O)(=O)N[C@@H]2CCC[C@@H]2[NH3+])cc1
REMARK SMILES IDX 9 1 10 2 11 3 8 4 5 5 6 6 20 7 7 8 19 9 4 10 2 11 1 12 3 13
REMARK SMILES IDX 12 14 13 16 14 17 17 18 15 19 16 20 18 21
REMARK H PARENT 12 15 18 22 18 23 18 24
ROOT
ATOM      1  S   UNL     1      52.437  50.646  18.983  1.00  0.00    +0.241 S 
ATOM      2  O   UNL     1      52.896  51.008  17.662  1.00  0.00    -0.207 OA
ATOM      3  O   UNL     1      53.067  49.642  19.817  1.00  0.00    -0.207 OA
ENDROOT
BRANCH   1   4
ATOM      4  C   UNL     1      52.162  52.108  19.935  1.00  0.00    +0.082 A 
ATOM      5  C   UNL     1      51.717  54.415  21.462  1.00  0.00    -0.048 A 
ATOM      6  C   UNL     1      52.036  54.510  20.097  1.00  0.00    +0.005 A 
ATOM      7  C   UNL     1      51.616  53.145  22.052  1.00  0.00    +0.005 A 
ATOM      8  C   UNL     1      52.257  53.363  19.329  1.00  0.00    +0.022 A 
ATOM      9  C   UNL     1      51.828  51.992  21.290  1.00  0.00    +0.022 A 
BRANCH   5  10
ATOM     10  C   UNL     1      51.479  55.667  22.279  1.00  0.00    +0.038 C 
BRANCH  10  11
ATOM     11  C   UNL     1      51.194  56.936  21.448  1.00  0.00    -0.013 C 
ATOM     12  C   UNL     1      49.832  57.511  21.852  1.00  0.00    +0.008 C 
ATOM     13  C   UNL     1      52.279  58.006  21.632  1.00  0.00    +0.008 C 
ENDBRANCH  10  11
ENDBRANCH   5  10
ENDBRANCH   1   4
BRANCH   1  14
ATOM     14  N   UNL     1      50.836  50.048  18.777  1.00  0.00    -0.202 NA
ATOM     15  H   UNL     1      50.325  50.365  19.619  1.00  0.00    +0.141 HD
BRANCH  14  16
ATOM     16  C   UNL     1      50.140  50.623  17.561  1.00  0.00    +0.128 C 
ATOM     17  C   UNL     1      48.999  51.531  18.036  1.00  0.00    +0.026 C 
ATOM     18  C   UNL     1      49.450  49.538  16.695  1.00  0.00    +0.199 C 
ATOM     19  C   UNL     1      47.778  51.214  17.173  1.00  0.00    +0.008 C 
ATOM     20  C   UNL     1      48.255  50.252  16.087  1.00  0.00    +0.067 C 
BRANCH  18  21
ATOM     21  N   UNL     1      48.996  48.408  17.570  1.00  0.00    -0.354 N 
ATOM     22  H   UNL     1      48.008  48.160  17.405  1.00  0.00    +0.344 HD
ATOM     23  H   UNL     1      49.149  48.577  18.572  1.00  0.00    +0.344 HD
ATOM     24  H   UNL     1      49.561  47.580  17.314  1.00  0.00    +0.344 HD
ENDBRANCH  18  21
ENDBRANCH  14  16
ENDBRANCH   1  14
TORSDOF 6
ENDMDL
MODEL 3
REMARK VINA RESULT:    -7.724      3.083      7.260
REMARK INTER + INTRA:         -10.864
REMARK INTER:                 -10.216
REMARK INTRA:                  -0.648
REMARK UNBOUND:                -0.656
REMARK SMILES CC(C)Cc1ccc(S(=O)(=O)N[C@@H]2CCC[C@@H]2[NH3+])cc1
REMARK SMILES IDX 9 1 10 2 11 3 8 4 5 5 6 6 20 7 7 8 19 9 4 10 2 11 1 12 3 13
REMARK SMILES IDX 12 14 13 16 14 17 17 18 15 19 16 20 18 21
REMARK H PARENT 12 15 18 22 18 23 18 24
ROOT
ATOM      1  S   UNL     1      51.732  52.371  19.348  1.00  0.00    +0.241 S 
ATOM      2  O   UNL     1      51.983  52.360  20.771  1.00  0.00    -0.207 OA
ATOM      3  O   UNL     1      52.770  52.350  18.337  1.00  0.00    -0.207 OA
ENDROOT
BRANCH   1   4
ATOM      4  C   UNL     1      50.509  51.159  18.953  1.00  0.00    +0.082 A 
ATOM      5  C   UNL     1      48.580  49.223  18.336  1.00  0.00    -0.048 A 
ATOM      6  C   UNL     1      48.550  50.485  17.719  1.00  0.00    +0.005 A 
ATOM      7  C   UNL     1      49.595  48.940  19.263  1.00  0.00    +0.005 A 
ATOM      8  C   UNL     1      49.511  51.455  18.021  1.00  0.00    +0.022 A 
ATOM      9  C   UNL     1      50.564  49.902  19.566  1.00  0.00    +0.022 A 
BRANCH   5  10
ATOM     10  C   UNL     1      47.533  48.183  17.997  1.00  0.00    +0.038 C 
BRANCH  10  11
ATOM     11  C   UNL     1      46.094  48.554  18.418  1.00  0.00    -0.013 C 
ATOM     12  C   UNL     1      45.282  48.926  17.173  1.00  0.00    +0.008 C 
ATOM     13  C   UNL     1      45.396  47.410  19.166  1.00  0.00    +0.008 C 
ENDBRANCH  10  11
ENDBRANCH   5  10
ENDBRANCH   1   4
BRANCH   1  14
ATOM     14  N   UNL     1      50.894  53.840  19.030  1.00  0.00    -0.202 NA
ATOM     15  H   UNL     1      50.092  53.565  18.438  1.00  0.00    +0.141 HD
BRANCH  14  16
ATOM     16  C   UNL     1      50.348  54.494  20.283  1.00  0.00    +0.128 C 
ATOM     17  C   UNL     1      48.974  55.094  19.962  1.00  0.00    +0.026 C 
ATOM     18  C   UNL     1      51.206  55.697  20.754  1.00  0.00    +0.199 C 
ATOM     19  C   UNL     1      48.930  56.488  20.585  1.00  0.00    +0.008 C 
ATOM     20  C   UNL     1      50.205  56.632  21.413  1.00  0.00    +0.067 C 
BRANCH  18  21
ATOM     21  N   UNL     1      51.840  56.360  19.568  1.00  0.00    -0.354 N 
ATOM     22  H   UNL     1      52.001  57.367  19.725  1.00  0.00    +0.344 HD
ATOM     23  H   UNL     1      51.317  56.224  18.693  1.00  0.00    +0.344 HD
ATOM     24  H   UNL     1      52.768  55.924  19.436  1.00  0.00    +0.344 HD
ENDBRANCH  18  21
ENDBRANCH  14  16
ENDBRANCH   1  14
TORSDOF 6
ENDMDL
MODEL 4
REMARK VINA RESULT:    -7.129      4.108      7.669
REMARK INTER + INTRA:         -10.078
REMARK INTER:                  -9.519
REMARK INTRA:                  -0.559
REMARK UNBOUND:                -0.656
REMARK SMILES CC(C)Cc1ccc(S(=O)(=O)N[C@@H]2CCC[C@@H]2[NH3+])cc1
REMARK SMILES IDX 9 1 10 2 11 3 8 4 5 5 6 6 20 7 7 8 19 9 4 10 2 11 1 12 3 13
REMARK SMILES IDX 12 14 13 16 14 17 17 18 15 19 16 20 18 21
REMARK H PARENT 12 15 18 22 18 23 18 24
ROOT
ATOM      1  S   UNL     1      51.034  51.025  18.178  1.00  0.00    +0.241 S 
ATOM      2  O   UNL     1      51.525  50.765  19.511  1.00  0.00    -0.207 OA
ATOM      3  O   UNL     1      51.783  50.758  16.966  1.00  0.00    -0.207 OA
ENDROOT
BRANCH   1   4
ATOM      4  C   UNL     1      49.401  50.372  18.010  1.00  0.00    +0.082 A 
ATOM      5  C   UNL     1      46.806  49.353  17.732  1.00  0.00    -0.048 A 
ATOM      6  C   UNL     1      47.682  48.828  18.697  1.00  0.00    +0.005 A 
ATOM      7  C   UNL     1      47.246  50.403  16.911  1.00  0.00    +0.005 A 
ATOM      8  C   UNL     1      48.977  49.334  18.842  1.00  0.00    +0.022 A 
ATOM      9  C   UNL     1      48.537  50.919  17.054  1.00  0.00    +0.022 A 
BRANCH   5  10
ATOM     10  C   UNL     1      45.406  48.795  17.588  1.00  0.00    +0.038 C 
BRANCH  10  11
ATOM     11  C   UNL     1      45.281  47.604  16.614  1.00  0.00    -0.013 C 
ATOM     12  C   UNL     1      44.986  48.130  15.205  1.00  0.00    +0.008 C 
ATOM     13  C   UNL     1      46.551  46.742  16.586  1.00  0.00    +0.008 C 
ENDBRANCH  10  11
ENDBRANCH   5  10
ENDBRANCH   1   4
BRANCH   1  14
ATOM     14  N   UNL     1      50.748  52.721  18.105  1.00  0.00    -0.202 NA
ATOM     15  H   UNL     1      50.058  52.842  17.344  1.00  0.00    +0.141 HD
BRANCH  14  16
ATOM     16  C   UNL     1      50.143  53.275  19.378  1.00  0.00    +0.128 C 
ATOM     17  C   UNL     1      48.933  54.141  19.007  1.00  0.00    +0.026 C 
ATOM     18  C   UNL     1      51.102  54.234  20.131  1.00  0.00    +0.199 C 
ATOM     19  C   UNL     1      49.017  55.420  19.839  1.00  0.00    +0.008 C 
ATOM     20  C   UNL     1      50.175  55.224  20.816  1.00  0.00    +0.067 C 
BRANCH  18  21
ATOM     21  N   UNL     1      51.985  54.940  19.145  1.00  0.00    -0.354 N 
ATOM     22  H   UNL     1      52.940  55.079  19.508  1.00  0.00    +0.344 HD
ATOM     23  H   UNL     1      51.603  55.837  18.820  1.00  0.00    +0.344 HD
ATOM     24  H   UNL     1      52.064  54.327  18.316  1.00  0.00    +0.344 HD
ENDBRANCH  18  21
ENDBRANCH  14  16
ENDBRANCH   1  14
TORSDOF 6
ENDMDL
MODEL 5
REMARK VINA RESULT:    -6.467      7.284      9.738
REMARK INTER + INTRA:          -9.203
REMARK INTER:                  -8.415
REMARK INTRA:                  -0.788
REMARK UNBOUND:                -0.656
REMARK SMILES CC(C)Cc1ccc(S(=O)(=O)N[C@@H]2CCC[C@@H]2[NH3+])cc1
REMARK SMILES IDX 9 1 10 2 11 3 8 4 5 5 6 6 20 7 7 8 19 9 4 10 2 11 1 12 3 13
REMARK SMILES IDX 12 14 13 16 14 17 17 18 15 19 16 20 18 21
REMARK H PARENT 12 15 18 22 18 23 18 24
ROOT
ATOM      1  S   UNL     1      47.826  48.175  17.341  1.00  0.00    +0.241 S 
ATOM      2  O   UNL     1      47.093  48.549  18.528  1.00  0.00    -0.207 OA
ATOM      3  O   UNL     1      48.726  47.042  17.261  1.00  0.00    -0.207 OA
ENDROOT
BRANCH   1   4
ATOM      4  C   UNL     1      46.732  48.150  15.953  1.00  0.00    +0.082 A 
ATOM      5  C   UNL     1      45.012  48.121  13.742  1.00  0.00    -0.048 A 
ATOM      6  C   UNL     1      44.546  47.756  15.016  1.00  0.00    +0.005 A 
ATOM      7  C   UNL     1      46.353  48.509  13.591  1.00  0.00    +0.005 A 
ATOM      8  C   UNL     1      45.399  47.771  16.124  1.00  0.00    +0.022 A 
ATOM      9  C   UNL     1      47.211  48.533  14.695  1.00  0.00    +0.022 A 
BRANCH   5  10
ATOM     10  C   UNL     1      44.076  48.102  12.553  1.00  0.00    +0.038 C 
BRANCH  10  11
ATOM     11  C   UNL     1      44.624  48.796  11.287  1.00  0.00    -0.013 C 
ATOM     12  C   UNL     1      44.658  47.789  10.132  1.00  0.00    +0.008 C 
ATOM     13  C   UNL     1      43.783  50.015  10.884  1.00  0.00    +0.008 C 
ENDBRANCH  10  11
ENDBRANCH   5  10
ENDBRANCH   1   4
BRANCH   1  14
ATOM     14  N   UNL     1      48.839  49.517  16.971  1.00  0.00    -0.202 NA
ATOM     15  H   UNL     1      48.754  49.640  15.948  1.00  0.00    +0.141 HD
BRANCH  14  16
ATOM     16  C   UNL     1      48.388  50.801  17.636  1.00  0.00    +0.128 C 
ATOM     17  C   UNL     1      47.687  51.673  16.589  1.00  0.00    +0.026 C 
ATOM     18  C   UNL     1      49.573  51.663  18.143  1.00  0.00    +0.199 C 
ATOM     19  C   UNL     1      48.203  53.100  16.766  1.00  0.00    +0.008 C 
ATOM     20  C   UNL     1      49.070  53.092  18.024  1.00  0.00    +0.067 C 
BRANCH  18  21
ATOM     21  N   UNL     1      50.765  51.452  17.256  1.00  0.00    -0.354 N 
ATOM     22  H   UNL     1      50.545  51.619  16.262  1.00  0.00    +0.344 HD
ATOM     23  H   UNL     1      51.199  50.526  17.365  1.00  0.00    +0.344 HD
ATOM     24  H   UNL     1      51.474  52.153  17.530  1.00  0.00    +0.344 HD
ENDBRANCH  18  21
ENDBRANCH  14  16
ENDBRANCH   1  14
TORSDOF 6
ENDMDL
