MODEL 1
REMARK VINA RESULT:    -6.974      0.000      0.000
REMARK INTER + INTRA:          -9.836
REMARK INTER:                  -9.217
REMARK INTRA:                  -0.620
REMARK UNBOUND:                -0.620
REMARK SMILES Nc1cc(S(=O)(=O)NCCc2nccs2)ccc1Cl
REMARK SMILES IDX 5 1 6 2 7 3 4 4 16 5 17 6 18 7 3 8 2 9 19 10 1 11 8 14 9 16
REMARK SMILES IDX 10 17 11 18 12 19 15 20 13 21 14 22
REMARK H PARENT 1 12 1 13 8 15
ROOT
ATOM      1  S   UNL     1      52.325  50.866  19.915  1.00  0.00    +0.240 S 
ATOM      2  O   UNL     1      52.814  52.108  19.359  1.00  0.00    -0.207 OA
ATOM      3  O   UNL     1      53.124  49.662  19.908  1.00  0.00    -0.207 OA
ENDROOT
BRANCH   1   4
ATOM      4  C   UNL     1      50.763  50.514  19.153  1.00  0.00    +0.084 A 
ATOM      5  C   UNL     1      50.063  49.362  19.526  1.00  0.00    +0.023 A 
ATOM      6  C   UNL     1      48.838  49.086  18.921  1.00  0.00    +0.024 A 
ATOM      7  C   UNL     1      48.313  49.970  17.972  1.00  0.00    +0.064 A 
ATOM      8  C   UNL     1      50.233  51.410  18.215  1.00  0.00    +0.048 A 
ATOM      9  C   UNL     1      48.980  51.168  17.645  1.00  0.00    +0.052 A 
ATOM     10 Cl   UNL     1      46.796  49.580  17.240  1.00  0.00    -0.082 Cl
BRANCH   9  11
ATOM     11  N   UNL     1      48.531  52.005  16.605  1.00  0.00    -0.397 N 
ATOM     12  H   UNL     1      47.516  52.091  16.584  1.00  0.00    +0.156 HD
ATOM     13  H   UNL     1      49.002  52.903  16.551  1.00  0.00    +0.156 HD
ENDBRANCH   9  11
ENDBRANCH   1   4
BRANCH   1  14
ATOM     14  N   UNL     1      51.879  51.195  21.493  1.00  0.00    -0.211 NA
ATOM     15  H   UNL     1      51.950  50.406  22.134  1.00  0.00    +0.141 HD
BRANCH  14  16
ATOM     16  C   UNL     1      50.941  52.285  21.793  1.00  0.00    +0.106 C 
BRANCH  16  17
ATOM     17  C   UNL     1      51.653  53.521  22.343  1.00  0.00    +0.084 C 
BRANCH  17  18
ATOM     18  C   UNL     1      51.588  54.675  21.390  1.00  0.00    +0.094 A 
ATOM     19  N   UNL     1      52.405  55.707  21.426  1.00  0.00    -0.250 NA
ATOM     20  S   UNL     1      50.390  54.723  20.157  1.00  0.00    -0.127 S 
ATOM     21  C   UNL     1      52.096  56.580  20.402  1.00  0.00    +0.123 A 
ATOM     22  C   UNL     1      51.033  56.213  19.608  1.00  0.00    +0.087 A 
ENDBRANCH  17  18
ENDBRANCH  16  17
ENDBRANCH  14  16
ENDBRANCH   1  14
TORSDOF 6
ENDMDL
MODEL 2
REMARK VINA RESULT:    -6.772      3.077      6.068
REMARK INTER + INTRA:          -9.569
REMARK INTER:                  -8.952
REMARK INTRA:                  -0.617
REMARK UNBOUND:                -0.620
REMARK SMILES Nc1cc(S(=O)(=O)NCCc2nccs2)ccc1Cl
REMARK SMILES IDX 5 1 6 2 7 3 4 4 16 5 17 6 18 7 3 8 2 9 19 10 1 11 8 14 9 16
REMARK SMILES IDX 10 17 11 18 12 19 15 20 13 21 14 22
REMARK H PARENT 1 12 1 13 8 15
ROOT
ATOM      1  S   UNL     1      52.338  50.660  18.824  1.00  0.00    +0.240 S 
ATOM      2  O   UNL     1      52.974  49.647  19.637  1.00  0.00    -0.207 OA
ATOM      3  O   UNL     1      52.890  51.072  17.553  1.00  0.00    -0.207 OA
ENDROOT
BRANCH   1   4
ATOM      4  C   UNL     1      52.111  52.098  19.836  1.00  0.00    +0.084 A 
ATOM      5  C   UNL     1      51.859  51.941  21.203  1.00  0.00    +0.023 A 
ATOM      6  C   UNL     1      51.675  53.073  21.995  1.00  0.00    +0.024 A 
ATOM      7  C   UNL     1      51.769  54.347  21.424  1.00  0.00    +0.064 A 
ATOM      8  C   UNL     1      52.220  53.372  19.264  1.00  0.00    +0.048 A 
ATOM      9  C   UNL     1      52.093  54.512  20.062  1.00  0.00    +0.052 A 
ATOM     10 Cl   UNL     1      51.521  55.722  22.443  1.00  0.00    -0.082 Cl
BRANCH   9  11
ATOM     11  N   UNL     1      52.067  55.778  19.444  1.00  0.00    -0.397 N 
ATOM     12  H   UNL     1      51.142  56.203  19.462  1.00  0.00    +0.156 HD
ATOM     13  H   UNL     1      52.796  56.413  19.753  1.00  0.00    +0.156 HD
ENDBRANCH   9  11
ENDBRANCH   1   4
BRANCH   1  14
ATOM     14  N   UNL     1      50.765  50.152  18.578  1.00  0.00    -0.211 NA
ATOM     15  H   UNL     1      50.171  50.814  18.078  1.00  0.00    +0.141 HD
BRANCH  14  16
ATOM     16  C   UNL     1      50.147  49.167  19.476  1.00  0.00    +0.106 C 
BRANCH  16  17
ATOM     17  C   UNL     1      48.697  48.869  19.093  1.00  0.00    +0.084 C 
BRANCH  17  18
ATOM     18  C   UNL     1      48.485  48.940  17.612  1.00  0.00    +0.094 A 
ATOM     19  N   UNL     1      48.239  50.055  16.955  1.00  0.00    -0.250 NA
ATOM     20  S   UNL     1      48.538  47.514  16.652  1.00  0.00    -0.127 S 
ATOM     21  C   UNL     1      48.116  49.783  15.607  1.00  0.00    +0.123 A 
ATOM     22  C   UNL     1      48.251  48.459  15.253  1.00  0.00    +0.087 A 
ENDBRANCH  17  18
ENDBRANCH  16  17
ENDBRANCH  14  16
ENDBRANCH   1  14
TORSDOF 6
ENDMDL
MODEL 3
REMARK VINA RESULT:    -6.704      3.092      6.225
REMARK INTER + INTRA:          -9.479
REMARK INTER:                  -8.938
REMARK INTRA:                  -0.541
REMARK UNBOUND:                -0.620
REMARK SMILES Nc1cc(S(=O)(=O)NCCc2nccs2)ccc1Cl
REMARK SMILES IDX 5 1 6 2 7 3 4 4 16 5 17 6 18 7 3 8 2 9 19 10 1 11 8 14 9 16
REMARK SMILES IDX 10 17 11 18 12 19 15 20 13 21 14 22
REMARK H PARENT 1 12 1 13 8 15
ROOT
ATOM      1  S   UNL     1      51.588  53.100  19.576  1.00  0.00    +0.240 S 
ATOM      2  O   UNL     1      52.245  52.607  20.766  1.00  0.00    -0.207 OA
ATOM      3  O   UNL     1      52.331  53.454  18.388  1.00  0.00    -0.207 OA
ENDROOT
BRANCH   1   4
ATOM      4  C   UNL     1      50.585  54.484  20.051  1.00  0.00    +0.084 A 
ATOM      5  C   UNL     1      49.294  54.606  19.527  1.00  0.00    +0.023 A 
ATOM      6  C   UNL     1      48.510  55.697  19.898  1.00  0.00    +0.024 A 
ATOM      7  C   UNL     1      49.010  56.639  20.804  1.00  0.00    +0.064 A 
ATOM      8  C   UNL     1      51.083  55.417  20.970  1.00  0.00    +0.048 A 
ATOM      9  C   UNL     1      50.282  56.483  21.390  1.00  0.00    +0.052 A 
ATOM     10 Cl   UNL     1      48.006  57.983  21.225  1.00  0.00    -0.082 Cl
BRANCH   9  11
ATOM     11  N   UNL     1      50.849  57.483  22.203  1.00  0.00    -0.397 N 
ATOM     12  H   UNL     1      50.999  57.169  23.160  1.00  0.00    +0.156 HD
ATOM     13  H   UNL     1      51.666  57.937  21.807  1.00  0.00    +0.156 HD
ENDBRANCH   9  11
ENDBRANCH   1   4
BRANCH   1  14
ATOM     14  N   UNL     1      50.439  51.959  19.162  1.00  0.00    -0.211 NA
ATOM     15  H   UNL     1      49.517  52.107  19.574  1.00  0.00    +0.141 HD
BRANCH  14  16
ATOM     16  C   UNL     1      50.840  50.604  18.761  1.00  0.00    +0.106 C 
BRANCH  16  17
ATOM     17  C   UNL     1      49.789  49.559  19.137  1.00  0.00    +0.084 C 
BRANCH  17  18
ATOM     18  C   UNL     1      48.524  49.731  18.353  1.00  0.00    +0.094 A 
ATOM     19  N   UNL     1      48.283  50.752  17.558  1.00  0.00    -0.250 NA
ATOM     20  S   UNL     1      47.264  48.565  18.462  1.00  0.00    -0.127 S 
ATOM     21  C   UNL     1      47.044  50.600  16.969  1.00  0.00    +0.123 A 
ATOM     22  C   UNL     1      46.345  49.472  17.336  1.00  0.00    +0.087 A 
ENDBRANCH  17  18
ENDBRANCH  16  17
ENDBRANCH  14  16
ENDBRANCH   1  14
TORSDOF 6
ENDMDL
MODEL 4
REMARK VINA RESULT:    -6.432      3.369      6.654
REMARK INTER + INTRA:          -9.119
REMARK INTER:                  -8.664
REMARK INTRA:                  -0.456
REMARK UNBOUND:                -0.620
REMARK SMILES Nc1cc(S(=O)(=O)NCCc2nccs2)ccc1Cl
REMARK SMILES IDX 5 1 6 2 7 3 4 4 16 5 17 6 18 7 3 8 2 9 19 10 1 11 8 14 9 16
REMARK SMILES IDX 10 17 11 18 12 19 15 20 13 21 14 22
REMARK H PARENT 1 12 1 13 8 15
ROOT
ATOM      1  S   UNL     1      51.148  49.926  19.640  1.00  0.00    +0.240 S 
ATOM      2  O   UNL     1      50.432  49.108  20.593  1.00  0.00    -0.207 OA
ATOM      3  O   UNL     1      52.555  49.732  19.375  1.00  0.00    -0.207 OA
ENDROOT
BRANCH   1   4
ATOM      4  C   UNL     1      50.884  51.623  20.085  1.00  0.00    +0.084 A 
ATOM      5  C   UNL     1      50.201  52.465  19.201  1.00  0.00    +0.023 A 
ATOM      6  C   UNL     1      50.000  53.798  19.551  1.00  0.00    +0.024 A 
ATOM      7  C   UNL     1      50.458  54.273  20.785  1.00  0.00    +0.064 A 
ATOM      8  C   UNL     1      51.331  52.091  21.328  1.00  0.00    +0.048 A 
ATOM      9  C   UNL     1      51.083  53.412  21.710  1.00  0.00    +0.052 A 
ATOM     10 Cl   UNL     1      50.196  55.938  21.171  1.00  0.00    -0.082 Cl
BRANCH   9  11
ATOM     11  N   UNL     1      51.660  53.898  22.899  1.00  0.00    -0.397 N 
ATOM     12  H   UNL     1      52.514  53.404  23.149  1.00  0.00    +0.156 HD
ATOM     13  H   UNL     1      51.766  54.907  22.935  1.00  0.00    +0.156 HD
ENDBRANCH   9  11
ENDBRANCH   1   4
BRANCH   1  14
ATOM     14  N   UNL     1      50.316  49.809  18.195  1.00  0.00    -0.211 NA
ATOM     15  H   UNL     1      50.421  50.610  17.572  1.00  0.00    +0.141 HD
BRANCH  14  16
ATOM     16  C   UNL     1      49.120  48.963  18.087  1.00  0.00    +0.106 C 
BRANCH  16  17
ATOM     17  C   UNL     1      47.834  49.788  18.049  1.00  0.00    +0.084 C 
BRANCH  17  18
ATOM     18  C   UNL     1      46.661  48.975  17.595  1.00  0.00    +0.094 A 
ATOM     19  N   UNL     1      46.129  49.056  16.393  1.00  0.00    -0.250 NA
ATOM     20  S   UNL     1      45.907  47.857  18.663  1.00  0.00    -0.127 S 
ATOM     21  C   UNL     1      45.082  48.163  16.287  1.00  0.00    +0.123 A 
ATOM     22  C   UNL     1      44.815  47.423  17.417  1.00  0.00    +0.087 A 
ENDBRANCH  17  18
ENDBRANCH  16  17
ENDBRANCH  14  16
ENDBRANCH   1  14
TORSDOF 6
ENDMDL
MODEL 5
REMARK VINA RESULT:    -6.353      3.619      5.126
REMARK INTER + INTRA:          -9.015
REMARK INTER:                  -8.378
REMARK INTRA:                  -0.638
REMARK UNBOUND:                -0.620
REMARK SMILES Nc1cc(S(=O)(=O)NCCc2nccs2)ccc1Cl
REMARK SMILES IDX 5 1 6 2 7 3 4 4 16 5 17 6 18 7 3 8 2 9 19 10 1 11 8 14 9 16
REMARK SMILES IDX 10 17 11 18 12 19 15 20 13 21 14 22
REMARK H PARENT 1 12 1 13 8 15
ROOT
ATOM      1  S   UNL     1      48.700  49.532  15.539  1.00  0.00    +0.240 S 
ATOM      2  O   UNL     1      47.982  50.303  14.549  1.00  0.00    -0.207 OA
ATOM      3  O   UNL     1      49.631  48.492  15.165  1.00  0.00    -0.207 OA
ENDROOT
BRANCH   1   4
ATOM      4  C   UNL     1      47.504  48.848  16.657  1.00  0.00    +0.084 A 
ATOM      5  C   UNL     1      47.772  48.847  18.029  1.00  0.00    +0.023 A 
ATOM      6  C   UNL     1      46.833  48.304  18.905  1.00  0.00    +0.024 A 
ATOM      7  C   UNL     1      45.630  47.792  18.407  1.00  0.00    +0.064 A 
ATOM      8  C   UNL     1      46.294  48.350  16.156  1.00  0.00    +0.048 A 
ATOM      9  C   UNL     1      45.324  47.855  17.032  1.00  0.00    +0.052 A 
ATOM     10 Cl   UNL     1      44.500  47.117  19.530  1.00  0.00    -0.082 Cl
BRANCH   9  11
ATOM     11  N   UNL     1      44.178  47.234  16.501  1.00  0.00    -0.397 N 
ATOM     12  H   UNL     1      44.382  46.328  16.084  1.00  0.00    +0.156 HD
ATOM     13  H   UNL     1      43.382  47.204  17.131  1.00  0.00    +0.156 HD
ENDBRANCH   9  11
ENDBRANCH   1   4
BRANCH   1  14
ATOM     14  N   UNL     1      49.498  50.633  16.511  1.00  0.00    -0.211 NA
ATOM     15  H   UNL     1      50.183  50.228  17.149  1.00  0.00    +0.141 HD
BRANCH  14  16
ATOM     16  C   UNL     1      48.880  51.925  16.842  1.00  0.00    +0.106 C 
BRANCH  16  17
ATOM     17  C   UNL     1      49.653  52.668  17.931  1.00  0.00    +0.084 C 
BRANCH  17  18
ATOM     18  C   UNL     1      50.613  51.770  18.649  1.00  0.00    +0.094 A 
ATOM     19  N   UNL     1      50.248  50.820  19.484  1.00  0.00    -0.250 NA
ATOM     20  S   UNL     1      52.309  51.944  18.423  1.00  0.00    -0.127 S 
ATOM     21  C   UNL     1      51.366  50.161  19.956  1.00  0.00    +0.123 A 
ATOM     22  C   UNL     1      52.574  50.630  19.489  1.00  0.00    +0.087 A 
ENDBRANCH  17  18
ENDBRANCH  16  17
ENDBRANCH  14  16
ENDBRANCH   1  14
TORSDOF 6
ENDMDL
