MODEL 1
REMARK VINA RESULT:    -8.170      0.000      0.000
REMARK INTER + INTRA:         -11.545
REMARK INTER:                 -11.036
REMARK INTRA:                  -0.508
REMARK UNBOUND:                -0.508
REMARK SMILES CC(C)NC(=O)NC(=O)CNc1ccccc1C(=O)NC(C)(C)C
REMARK SMILES IDX 11 1 10 3 8 4 4 5 5 6 6 7 7 8 9 9 2 12 1 13 3 14 12 15 13 16
REMARK SMILES IDX 17 17 14 18 16 19 15 20 18 21 19 22 20 23 21 25 22 26 23 27
REMARK SMILES IDX 24 28
REMARK H PARENT 11 2 4 10 7 11 20 24
ROOT
ATOM      1  N   UNL     1      49.669  51.596  17.319  1.00  0.00    -0.375 N 
ATOM      2  H   UNL     1      49.840  50.939  16.539  1.00  0.00    +0.161 HD
ENDROOT
BRANCH   1   3
ATOM      3  C   UNL     1      48.281  52.126  17.258  1.00  0.00    +0.213 C 
BRANCH   3   4
ATOM      4  C   UNL     1      48.291  53.659  17.270  1.00  0.00    +0.247 C 
ATOM      5  N   UNL     1      49.264  55.389  20.239  1.00  0.00    -0.336 N 
ATOM      6  C   UNL     1      48.958  55.341  18.891  1.00  0.00    +0.321 C 
ATOM      7  O   UNL     1      49.141  56.289  18.137  1.00  0.00    -0.248 OA
ATOM      8  N   UNL     1      48.344  54.159  18.561  1.00  0.00    -0.277 N 
ATOM      9  O   UNL     1      48.173  54.308  16.236  1.00  0.00    -0.273 OA
ATOM     10  H   UNL     1      49.393  54.507  20.713  1.00  0.00    +0.165 HD
ATOM     11  H   UNL     1      48.433  53.410  19.239  1.00  0.00    +0.174 HD
BRANCH   5  12
ATOM     12  C   UNL     1      49.946  56.545  20.811  1.00  0.00    +0.077 C 
ATOM     13  C   UNL     1      48.925  57.497  21.425  1.00  0.00    +0.030 C 
ATOM     14  C   UNL     1      50.972  56.107  21.855  1.00  0.00    +0.030 C 
ENDBRANCH   5  12
ENDBRANCH   3   4
ENDBRANCH   1   3
BRANCH   1  15
ATOM     15  C   UNL     1      50.033  50.969  18.536  1.00  0.00    +0.047 A 
ATOM     16  C   UNL     1      50.910  51.627  19.416  1.00  0.00    +0.026 A 
ATOM     17  C   UNL     1      49.594  49.665  18.875  1.00  0.00    +0.062 A 
ATOM     18  C   UNL     1      51.346  51.016  20.594  1.00  0.00    +0.002 A 
ATOM     19  C   UNL     1      50.061  49.050  20.051  1.00  0.00    +0.016 A 
ATOM     20  C   UNL     1      50.929  49.728  20.908  1.00  0.00    +0.001 A 
BRANCH  17  21
ATOM     21  C   UNL     1      48.630  48.935  17.988  1.00  0.00    +0.253 C 
ATOM     22  O   UNL     1      48.917  48.742  16.811  1.00  0.00    -0.269 OA
ATOM     23  N   UNL     1      47.423  48.574  18.556  1.00  0.00    -0.347 N 
ATOM     24  H   UNL     1      47.179  49.018  19.431  1.00  0.00    +0.164 HD
BRANCH  23  25
ATOM     25  C   UNL     1      46.314  47.939  17.823  1.00  0.00    +0.032 C 
ATOM     26  C   UNL     1      46.809  46.757  16.973  1.00  0.00    +0.034 C 
ATOM     27  C   UNL     1      45.314  47.394  18.860  1.00  0.00    +0.034 C 
ATOM     28  C   UNL     1      45.591  48.964  16.937  1.00  0.00    +0.034 C 
ENDBRANCH  23  25
ENDBRANCH  17  21
ENDBRANCH   1  15
TORSDOF 6
ENDMDL
MODEL 2
REMARK VINA RESULT:    -8.157      2.046      4.278
REMARK INTER + INTRA:         -11.527
REMARK INTER:                 -10.969
REMARK INTRA:                  -0.558
REMARK UNBOUND:                -0.508
REMARK SMILES CC(C)NC(=O)NC(=O)CNc1ccccc1C(=O)NC(C)(C)C
REMARK SMILES IDX 11 1 10 3 8 4 4 5 5 6 6 7 7 8 9 9 2 12 1 13 3 14 12 15 13 16
REMARK SMILES IDX 17 17 14 18 16 19 15 20 18 21 19 22 20 23 21 25 22 26 23 27
REMARK SMILES IDX 24 28
REMARK H PARENT 11 2 4 10 7 11 20 24
ROOT
ATOM      1  N   UNL     1      48.407  51.890  16.453  1.00  0.00    -0.375 N 
ATOM      2  H   UNL     1      48.294  51.734  15.437  1.00  0.00    +0.161 HD
ENDROOT
BRANCH   1   3
ATOM      3  C   UNL     1      47.773  53.171  16.857  1.00  0.00    +0.213 C 
BRANCH   3   4
ATOM      4  C   UNL     1      48.778  54.056  17.604  1.00  0.00    +0.247 C 
ATOM      5  N   UNL     1      47.917  57.435  18.375  1.00  0.00    -0.336 N 
ATOM      6  C   UNL     1      48.720  56.315  18.495  1.00  0.00    +0.321 C 
ATOM      7  O   UNL     1      49.615  56.230  19.325  1.00  0.00    -0.248 OA
ATOM      8  N   UNL     1      48.445  55.397  17.512  1.00  0.00    -0.277 N 
ATOM      9  O   UNL     1      49.783  53.583  18.125  1.00  0.00    -0.273 OA
ATOM     10  H   UNL     1      47.026  57.315  17.915  1.00  0.00    +0.165 HD
ATOM     11  H   UNL     1      47.565  55.522  17.024  1.00  0.00    +0.174 HD
BRANCH   5  12
ATOM     12  C   UNL     1      48.016  58.534  19.329  1.00  0.00    +0.077 C 
ATOM     13  C   UNL     1      47.293  59.761  18.784  1.00  0.00    +0.030 C 
ATOM     14  C   UNL     1      47.444  58.127  20.686  1.00  0.00    +0.030 C 
ENDBRANCH   5  12
ENDBRANCH   3   4
ENDBRANCH   1   3
BRANCH   1  15
ATOM     15  C   UNL     1      47.958  50.738  17.146  1.00  0.00    +0.047 A 
ATOM     16  C   UNL     1      46.627  50.313  16.988  1.00  0.00    +0.026 A 
ATOM     17  C   UNL     1      48.787  50.029  18.051  1.00  0.00    +0.062 A 
ATOM     18  C   UNL     1      46.126  49.223  17.705  1.00  0.00    +0.002 A 
ATOM     19  C   UNL     1      48.263  48.950  18.786  1.00  0.00    +0.016 A 
ATOM     20  C   UNL     1      46.939  48.547  18.606  1.00  0.00    +0.001 A 
BRANCH  17  21
ATOM     21  C   UNL     1      50.223  50.420  18.228  1.00  0.00    +0.253 C 
ATOM     22  O   UNL     1      50.969  50.445  17.254  1.00  0.00    -0.269 OA
ATOM     23  N   UNL     1      50.637  50.674  19.521  1.00  0.00    -0.347 N 
ATOM     24  H   UNL     1      50.030  50.359  20.266  1.00  0.00    +0.164 HD
BRANCH  23  25
ATOM     25  C   UNL     1      52.027  50.977  19.908  1.00  0.00    +0.032 C 
ATOM     26  C   UNL     1      52.584  52.165  19.105  1.00  0.00    +0.034 C 
ATOM     27  C   UNL     1      52.029  51.366  21.398  1.00  0.00    +0.034 C 
ATOM     28  C   UNL     1      52.924  49.744  19.723  1.00  0.00    +0.034 C 
ENDBRANCH  23  25
ENDBRANCH  17  21
ENDBRANCH   1  15
TORSDOF 6
ENDMDL
MODEL 3
REMARK VINA RESULT:    -7.891      2.348      3.735
REMARK INTER + INTRA:         -11.168
REMARK INTER:                 -10.669
REMARK INTRA:                  -0.499
REMARK UNBOUND:                -0.508
REMARK SMILES CC(C)NC(=O)NC(=O)CNc1ccccc1C(=O)NC(C)(C)C
REMARK SMILES IDX 11 1 10 3 8 4 4 5 5 6 6 7 7 8 9 9 2 12 1 13 3 14 12 15 13 16
REMARK SMILES IDX 17 17 14 18 16 19 15 20 18 21 19 22 20 23 21 25 22 26 23 27
REMARK SMILES IDX 24 28
REMARK H PARENT 11 2 4 10 7 11 20 24
ROOT
ATOM      1  N   UNL     1      50.029  51.279  18.947  1.00  0.00    -0.375 N 
ATOM      2  H   UNL     1      49.801  50.307  18.678  1.00  0.00    +0.161 HD
ENDROOT
BRANCH   1   3
ATOM      3  C   UNL     1      51.501  51.467  19.019  1.00  0.00    +0.213 C 
BRANCH   3   4
ATOM      4  C   UNL     1      51.905  52.021  20.390  1.00  0.00    +0.247 C 
ATOM      5  N   UNL     1      51.710  55.535  20.996  1.00  0.00    -0.336 N 
ATOM      6  C   UNL     1      51.866  54.226  21.411  1.00  0.00    +0.321 C 
ATOM      7  O   UNL     1      51.876  53.903  22.592  1.00  0.00    -0.248 OA
ATOM      8  N   UNL     1      52.107  53.391  20.348  1.00  0.00    -0.277 N 
ATOM      9  O   UNL     1      52.097  51.280  21.349  1.00  0.00    -0.273 OA
ATOM     10  H   UNL     1      51.393  55.683  20.048  1.00  0.00    +0.165 HD
ATOM     11  H   UNL     1      51.883  53.765  19.432  1.00  0.00    +0.174 HD
BRANCH   5  12
ATOM     12  C   UNL     1      51.419  56.596  21.955  1.00  0.00    +0.077 C 
ATOM     13  C   UNL     1      52.477  57.689  21.855  1.00  0.00    +0.030 C 
ATOM     14  C   UNL     1      50.023  57.171  21.720  1.00  0.00    +0.030 C 
ENDBRANCH   5  12
ENDBRANCH   3   4
ENDBRANCH   1   3
BRANCH   1  15
ATOM     15  C   UNL     1      49.339  52.168  18.085  1.00  0.00    +0.047 A 
ATOM     16  C   UNL     1      49.318  53.542  18.383  1.00  0.00    +0.026 A 
ATOM     17  C   UNL     1      48.608  51.713  16.960  1.00  0.00    +0.062 A 
ATOM     18  C   UNL     1      48.595  54.441  17.598  1.00  0.00    +0.002 A 
ATOM     19  C   UNL     1      47.861  52.626  16.192  1.00  0.00    +0.016 A 
ATOM     20  C   UNL     1      47.862  53.985  16.509  1.00  0.00    +0.001 A 
BRANCH  17  21
ATOM     21  C   UNL     1      48.627  50.264  16.578  1.00  0.00    +0.253 C 
ATOM     22  O   UNL     1      49.536  49.834  15.875  1.00  0.00    -0.269 OA
ATOM     23  N   UNL     1      47.556  49.501  17.005  1.00  0.00    -0.347 N 
ATOM     24  H   UNL     1      46.739  50.001  17.330  1.00  0.00    +0.164 HD
BRANCH  23  25
ATOM     25  C   UNL     1      47.347  48.086  16.650  1.00  0.00    +0.032 C 
ATOM     26  C   UNL     1      48.596  47.242  16.958  1.00  0.00    +0.034 C 
ATOM     27  C   UNL     1      46.186  47.550  17.509  1.00  0.00    +0.034 C 
ATOM     28  C   UNL     1      46.965  47.947  15.169  1.00  0.00    +0.034 C 
ENDBRANCH  23  25
ENDBRANCH  17  21
ENDBRANCH   1  15
TORSDOF 6
ENDMDL
MODEL 4
REMARK VINA RESULT:    -7.654      2.539      7.024
REMARK INTER + INTRA:         -10.847
REMARK INTER:                  -9.755
REMARK INTRA:                  -1.092
REMARK UNBOUND:                -0.508
REMARK SMILES CC(C)NC(=O)NC(=O)CNc1ccccc1C(=O)NC(C)(C)C
REMARK SMILES IDX 11 1 10 3 8 4 4 5 5 6 6 7 7 8 9 9 2 12 1 13 3 14 12 15 13 16
REMARK SMILES IDX 17 17 14 18 16 19 15 20 18 21 19 22 20 23 21 25 22 26 23 27
REMARK SMILES IDX 24 28
REMARK H PARENT 11 2 4 10 7 11 20 24
ROOT
ATOM      1  N   UNL     1      51.308  56.005  19.143  1.00  0.00    -0.375 N 
ATOM      2  H   UNL     1      51.855  56.703  18.610  1.00  0.00    +0.161 HD
ENDROOT
BRANCH   1   3
ATOM      3  C   UNL     1      52.209  55.151  19.959  1.00  0.00    +0.213 C 
BRANCH   3   4
ATOM      4  C   UNL     1      52.319  53.749  19.348  1.00  0.00    +0.247 C 
ATOM      5  N   UNL     1      49.350  52.002  18.407  1.00  0.00    -0.336 N 
ATOM      6  C   UNL     1      50.723  52.169  18.421  1.00  0.00    +0.321 C 
ATOM      7  O   UNL     1      51.478  51.500  17.728  1.00  0.00    -0.248 OA
ATOM      8  N   UNL     1      51.104  53.086  19.370  1.00  0.00    -0.277 N 
ATOM      9  O   UNL     1      53.398  53.293  18.983  1.00  0.00    -0.273 OA
ATOM     10  H   UNL     1      48.789  52.773  18.738  1.00  0.00    +0.165 HD
ATOM     11  H   UNL     1      50.367  53.686  19.726  1.00  0.00    +0.174 HD
BRANCH   5  12
ATOM     12  C   UNL     1      48.717  51.092  17.458  1.00  0.00    +0.077 C 
ATOM     13  C   UNL     1      48.423  49.758  18.137  1.00  0.00    +0.030 C 
ATOM     14  C   UNL     1      47.436  51.704  16.893  1.00  0.00    +0.030 C 
ENDBRANCH   5  12
ENDBRANCH   3   4
ENDBRANCH   1   3
BRANCH   1  15
ATOM     15  C   UNL     1      50.283  56.674  19.858  1.00  0.00    +0.047 A 
ATOM     16  C   UNL     1      50.575  57.244  21.110  1.00  0.00    +0.026 A 
ATOM     17  C   UNL     1      48.949  56.736  19.386  1.00  0.00    +0.062 A 
ATOM     18  C   UNL     1      49.579  57.854  21.876  1.00  0.00    +0.002 A 
ATOM     19  C   UNL     1      47.949  57.329  20.180  1.00  0.00    +0.016 A 
ATOM     20  C   UNL     1      48.268  57.890  21.417  1.00  0.00    +0.001 A 
BRANCH  17  21
ATOM     21  C   UNL     1      48.594  56.175  18.042  1.00  0.00    +0.253 C 
ATOM     22  O   UNL     1      48.966  55.045  17.739  1.00  0.00    -0.269 OA
ATOM     23  N   UNL     1      47.906  57.014  17.187  1.00  0.00    -0.347 N 
ATOM     24  H   UNL     1      47.895  57.997  17.422  1.00  0.00    +0.164 HD
BRANCH  23  25
ATOM     25  C   UNL     1      47.554  56.681  15.795  1.00  0.00    +0.032 C 
ATOM     26  C   UNL     1      47.207  55.189  15.648  1.00  0.00    +0.034 C 
ATOM     27  C   UNL     1      46.307  57.500  15.414  1.00  0.00    +0.034 C 
ATOM     28  C   UNL     1      48.697  57.056  14.841  1.00  0.00    +0.034 C 
ENDBRANCH  23  25
ENDBRANCH  17  21
ENDBRANCH   1  15
TORSDOF 6
ENDMDL
MODEL 5
REMARK VINA RESULT:    -7.621      2.228      5.626
REMARK INTER + INTRA:         -10.803
REMARK INTER:                  -9.446
REMARK INTRA:                  -1.357
REMARK UNBOUND:                -0.508
REMARK SMILES CC(C)NC(=O)NC(=O)CNc1ccccc1C(=O)NC(C)(C)C
REMARK SMILES IDX 11 1 10 3 8 4 4 5 5 6 6 7 7 8 9 9 2 12 1 13 3 14 12 15 13 16
REMARK SMILES IDX 17 17 14 18 16 19 15 20 18 21 19 22 20 23 21 25 22 26 23 27
REMARK SMILES IDX 24 28
REMARK H PARENT 11 2 4 10 7 11 20 24
ROOT
ATOM      1  N   UNL     1      50.487  55.731  19.119  1.00  0.00    -0.375 N 
ATOM      2  H   UNL     1      50.612  54.868  18.563  1.00  0.00    +0.161 HD
ENDROOT
BRANCH   1   3
ATOM      3  C   UNL     1      49.123  56.285  18.919  1.00  0.00    +0.213 C 
BRANCH   3   4
ATOM      4  C   UNL     1      48.532  55.793  17.592  1.00  0.00    +0.247 C 
ATOM      5  N   UNL     1      48.528  52.298  16.858  1.00  0.00    -0.336 N 
ATOM      6  C   UNL     1      48.139  53.603  16.617  1.00  0.00    +0.321 C 
ATOM      7  O   UNL     1      47.269  53.894  15.807  1.00  0.00    -0.248 OA
ATOM      8  N   UNL     1      48.919  54.492  17.313  1.00  0.00    -0.277 N 
ATOM      9  O   UNL     1      47.878  56.536  16.868  1.00  0.00    -0.273 OA
ATOM     10  H   UNL     1      48.993  52.111  17.735  1.00  0.00    +0.165 HD
ATOM     11  H   UNL     1      49.463  54.102  18.075  1.00  0.00    +0.174 HD
BRANCH   5  12
ATOM     12  C   UNL     1      47.822  51.180  16.242  1.00  0.00    +0.077 C 
ATOM     13  C   UNL     1      48.809  50.297  15.486  1.00  0.00    +0.030 C 
ATOM     14  C   UNL     1      47.067  50.369  17.295  1.00  0.00    +0.030 C 
ENDBRANCH   5  12
ENDBRANCH   3   4
ENDBRANCH   1   3
BRANCH   1  15
ATOM     15  C   UNL     1      50.852  55.469  20.463  1.00  0.00    +0.047 A 
ATOM     16  C   UNL     1      51.054  56.545  21.345  1.00  0.00    +0.026 A 
ATOM     17  C   UNL     1      51.085  54.156  20.941  1.00  0.00    +0.062 A 
ATOM     18  C   UNL     1      51.479  56.333  22.659  1.00  0.00    +0.002 A 
ATOM     19  C   UNL     1      51.538  53.957  22.258  1.00  0.00    +0.016 A 
ATOM     20  C   UNL     1      51.726  55.043  23.113  1.00  0.00    +0.001 A 
BRANCH  17  21
ATOM     21  C   UNL     1      50.848  52.973  20.051  1.00  0.00    +0.253 C 
ATOM     22  O   UNL     1      49.784  52.870  19.449  1.00  0.00    -0.269 OA
ATOM     23  N   UNL     1      51.848  52.020  20.015  1.00  0.00    -0.347 N 
ATOM     24  H   UNL     1      52.544  52.060  20.747  1.00  0.00    +0.164 HD
BRANCH  23  25
ATOM     25  C   UNL     1      51.760  50.746  19.279  1.00  0.00    +0.032 C 
ATOM     26  C   UNL     1      50.358  50.126  19.401  1.00  0.00    +0.034 C 
ATOM     27  C   UNL     1      52.022  51.041  17.791  1.00  0.00    +0.034 C 
ATOM     28  C   UNL     1      52.823  49.756  19.777  1.00  0.00    +0.034 C 
ENDBRANCH  23  25
ENDBRANCH  17  21
ENDBRANCH   1  15
TORSDOF 6
ENDMDL
