MODEL 1
REMARK VINA RESULT:    -9.109      0.000      0.000
REMARK INTER + INTRA:         -12.872
REMARK INTER:                 -11.771
REMARK INTRA:                  -1.100
REMARK UNBOUND:                -1.100
REMARK SMILES CC1CCC2(CC1)NC(=O)N(CC(=O)NC[C@H]1CC[NH+](C(C)C)C1)C2=O
REMARK SMILES IDX 13 1 14 2 15 3 12 5 11 6 2 7 3 8 7 9 4 10 6 11 5 12 25 13
REMARK SMILES IDX 8 14 26 15 9 16 10 17 1 18 16 20 17 21 18 22 24 23 19 24
REMARK SMILES IDX 20 25 21 27 22 28 23 29
REMARK H PARENT 15 4 8 19 20 26
ROOT
ATOM      1  C   UNL     1      52.020  50.480  19.732  1.00  0.00    +0.240 C 
ATOM      2  O   UNL     1      52.506  49.980  18.716  1.00  0.00    -0.273 OA
ATOM      3  N   UNL     1      50.784  50.093  20.202  1.00  0.00    -0.354 N 
ATOM      4  H   UNL     1      50.604  50.328  21.180  1.00  0.00    +0.163 HD
ENDROOT
BRANCH   1   5
ATOM      5  C   UNL     1      52.750  51.537  20.558  1.00  0.00    +0.230 C 
BRANCH   5   6
ATOM      6  N   UNL     1      52.227  52.852  20.257  1.00  0.00    -0.253 N 
ATOM      7  C   UNL     1      49.854  57.623  20.459  1.00  0.00    -0.014 C 
ATOM      8  C   UNL     1      51.340  57.366  20.750  1.00  0.00    +0.006 C 
ATOM      9  C   UNL     1      49.279  56.539  19.536  1.00  0.00    +0.006 C 
ATOM     10  C   UNL     1      51.616  55.952  21.263  1.00  0.00    +0.039 C 
ATOM     11  C   UNL     1      49.540  55.118  20.042  1.00  0.00    +0.039 C 
ATOM     12  C   UNL     1      51.017  54.881  20.348  1.00  0.00    +0.121 C 
ATOM     13  C   UNL     1      51.242  53.484  20.957  1.00  0.00    +0.256 C 
ATOM     14  N   UNL     1      51.802  54.717  19.139  1.00  0.00    -0.323 N 
ATOM     15  O   UNL     1      50.624  52.987  21.888  1.00  0.00    -0.272 OA
ATOM     16  C   UNL     1      52.494  53.530  19.112  1.00  0.00    +0.325 C 
ATOM     17  O   UNL     1      53.161  53.138  18.170  1.00  0.00    -0.248 OA
ATOM     18  C   UNL     1      49.041  57.755  21.751  1.00  0.00    +0.007 C 
ATOM     19  H   UNL     1      51.906  55.406  18.404  1.00  0.00    +0.166 HD
ENDBRANCH   5   6
ENDBRANCH   1   5
BRANCH   3  20
ATOM     20  C   UNL     1      50.080  48.925  19.701  1.00  0.00    +0.125 C 
BRANCH  20  21
ATOM     21  C   UNL     1      48.882  49.160  18.761  1.00  0.00    +0.069 C 
ATOM     22  C   UNL     1      48.676  50.596  18.292  1.00  0.00    +0.072 C 
ATOM     23  C   UNL     1      48.918  48.372  17.457  1.00  0.00    +0.267 C 
ATOM     24  C   UNL     1      49.360  50.710  16.936  1.00  0.00    +0.263 C 
ATOM     25  N   UNL     1      49.594  49.291  16.482  1.00  0.00    -0.333 N 
ATOM     26  H   UNL     1      50.601  49.113  16.681  1.00  0.00    +0.348 HD
BRANCH  25  27
ATOM     27  C   UNL     1      49.458  48.957  15.019  1.00  0.00    +0.177 C 
ATOM     28  C   UNL     1      48.183  49.529  14.407  1.00  0.00    +0.075 C 
ATOM     29  C   UNL     1      50.704  49.435  14.276  1.00  0.00    +0.075 C 
ENDBRANCH  25  27
ENDBRANCH  20  21
ENDBRANCH   3  20
TORSDOF 5
ENDMDL
MODEL 2
REMARK VINA RESULT:    -8.758      1.682      2.033
REMARK INTER + INTRA:         -12.419
REMARK INTER:                 -11.570
REMARK INTRA:                  -0.849
REMARK UNBOUND:                -1.100
REMARK SMILES CC1CCC2(CC1)NC(=O)N(CC(=O)NC[C@H]1CC[NH+](C(C)C)C1)C2=O
REMARK SMILES IDX 13 1 14 2 15 3 12 5 11 6 2 7 3 8 7 9 4 10 6 11 5 12 25 13
REMARK SMILES IDX 8 14 26 15 9 16 10 17 1 18 16 20 17 21 18 22 24 23 19 24
REMARK SMILES IDX 20 25 21 27 22 28 23 29
REMARK H PARENT 15 4 8 19 20 26
ROOT
ATOM      1  C   UNL     1      51.140  49.780  20.347  1.00  0.00    +0.240 C 
ATOM      2  O   UNL     1      50.527  49.246  21.273  1.00  0.00    -0.273 OA
ATOM      3  N   UNL     1      50.788  49.560  19.033  1.00  0.00    -0.354 N 
ATOM      4  H   UNL     1      51.142  50.256  18.372  1.00  0.00    +0.163 HD
ENDROOT
BRANCH   1   5
ATOM      5  C   UNL     1      52.309  50.736  20.577  1.00  0.00    +0.230 C 
BRANCH   5   6
ATOM      6  N   UNL     1      51.916  52.089  20.250  1.00  0.00    -0.253 N 
ATOM      7  C   UNL     1      50.213  57.140  20.406  1.00  0.00    -0.014 C 
ATOM      8  C   UNL     1      51.681  56.703  20.508  1.00  0.00    +0.006 C 
ATOM      9  C   UNL     1      49.378  56.091  19.658  1.00  0.00    +0.006 C 
ATOM     10  C   UNL     1      51.851  55.297  21.087  1.00  0.00    +0.039 C 
ATOM     11  C   UNL     1      49.530  54.681  20.232  1.00  0.00    +0.039 C 
ATOM     12  C   UNL     1      50.995  54.264  20.349  1.00  0.00    +0.121 C 
ATOM     13  C   UNL     1      51.131  52.889  21.028  1.00  0.00    +0.256 C 
ATOM     14  N   UNL     1      51.567  53.925  19.060  1.00  0.00    -0.323 N 
ATOM     15  O   UNL     1      50.599  52.535  22.071  1.00  0.00    -0.272 OA
ATOM     16  C   UNL     1      52.094  52.657  19.030  1.00  0.00    +0.325 C 
ATOM     17  O   UNL     1      52.562  52.124  18.038  1.00  0.00    -0.248 OA
ATOM     18  C   UNL     1      49.621  57.457  21.783  1.00  0.00    +0.007 C 
ATOM     19  H   UNL     1      51.648  54.550  18.266  1.00  0.00    +0.166 HD
ENDBRANCH   5   6
ENDBRANCH   1   5
BRANCH   3  20
ATOM     20  C   UNL     1      49.551  48.904  18.646  1.00  0.00    +0.125 C 
BRANCH  20  21
ATOM     21  C   UNL     1      48.311  49.791  18.423  1.00  0.00    +0.069 C 
ATOM     22  C   UNL     1      48.425  50.825  17.309  1.00  0.00    +0.072 C 
ATOM     23  C   UNL     1      47.034  49.039  18.067  1.00  0.00    +0.267 C 
ATOM     24  C   UNL     1      47.808  50.192  16.067  1.00  0.00    +0.263 C 
ATOM     25  N   UNL     1      47.022  49.008  16.566  1.00  0.00    -0.333 N 
ATOM     26  H   UNL     1      47.628  48.184  16.364  1.00  0.00    +0.348 HD
BRANCH  25  27
ATOM     27  C   UNL     1      45.717  48.659  15.900  1.00  0.00    +0.177 C 
ATOM     28  C   UNL     1      45.904  47.743  14.695  1.00  0.00    +0.075 C 
ATOM     29  C   UNL     1      44.773  48.045  16.933  1.00  0.00    +0.075 C 
ENDBRANCH  25  27
ENDBRANCH  20  21
ENDBRANCH   3  20
TORSDOF 5
ENDMDL
MODEL 3
REMARK VINA RESULT:    -8.665      1.720      2.860
REMARK INTER + INTRA:         -12.298
REMARK INTER:                 -11.514
REMARK INTRA:                  -0.784
REMARK UNBOUND:                -1.100
REMARK SMILES CC1CCC2(CC1)NC(=O)N(CC(=O)NC[C@H]1CC[NH+](C(C)C)C1)C2=O
REMARK SMILES IDX 13 1 14 2 15 3 12 5 11 6 2 7 3 8 7 9 4 10 6 11 5 12 25 13
REMARK SMILES IDX 8 14 26 15 9 16 10 17 1 18 16 20 17 21 18 22 24 23 19 24
REMARK SMILES IDX 20 25 21 27 22 28 23 29
REMARK H PARENT 15 4 8 19 20 26
ROOT
ATOM      1  C   UNL     1      52.380  52.066  19.031  1.00  0.00    +0.240 C 
ATOM      2  O   UNL     1      52.599  51.040  19.678  1.00  0.00    -0.273 OA
ATOM      3  N   UNL     1      51.597  52.045  17.898  1.00  0.00    -0.354 N 
ATOM      4  H   UNL     1      51.232  52.957  17.612  1.00  0.00    +0.163 HD
ENDROOT
BRANCH   1   5
ATOM      5  C   UNL     1      52.931  53.430  19.442  1.00  0.00    +0.230 C 
BRANCH   5   6
ATOM      6  N   UNL     1      51.876  54.240  20.011  1.00  0.00    -0.253 N 
ATOM      7  C   UNL     1      47.979  57.784  20.841  1.00  0.00    -0.014 C 
ATOM      8  C   UNL     1      47.765  56.326  20.409  1.00  0.00    +0.006 C 
ATOM      9  C   UNL     1      49.310  57.947  21.588  1.00  0.00    +0.006 C 
ATOM     10  C   UNL     1      48.949  55.751  19.630  1.00  0.00    +0.039 C 
ATOM     11  C   UNL     1      50.506  57.384  20.816  1.00  0.00    +0.039 C 
ATOM     12  C   UNL     1      50.274  55.941  20.373  1.00  0.00    +0.121 C 
ATOM     13  C   UNL     1      51.440  55.430  19.506  1.00  0.00    +0.256 C 
ATOM     14  N   UNL     1      50.401  55.008  21.476  1.00  0.00    -0.323 N 
ATOM     15  O   UNL     1      51.936  55.998  18.544  1.00  0.00    -0.272 OA
ATOM     16  C   UNL     1      51.338  54.031  21.240  1.00  0.00    +0.325 C 
ATOM     17  O   UNL     1      51.673  53.182  22.049  1.00  0.00    -0.248 OA
ATOM     18  C   UNL     1      47.876  58.746  19.653  1.00  0.00    +0.007 C 
ATOM     19  H   UNL     1      49.834  55.004  22.316  1.00  0.00    +0.166 HD
ENDBRANCH   5   6
ENDBRANCH   1   5
BRANCH   3  20
ATOM     20  C   UNL     1      50.784  50.902  17.521  1.00  0.00    +0.125 C 
BRANCH  20  21
ATOM     21  C   UNL     1      49.283  50.945  17.869  1.00  0.00    +0.069 C 
ATOM     22  C   UNL     1      48.347  51.339  16.731  1.00  0.00    +0.072 C 
ATOM     23  C   UNL     1      48.695  49.628  18.361  1.00  0.00    +0.267 C 
ATOM     24  C   UNL     1      47.846  50.038  16.115  1.00  0.00    +0.263 C 
ATOM     25  N   UNL     1      48.173  48.964  17.120  1.00  0.00    -0.333 N 
ATOM     26  H   UNL     1      49.030  48.504  16.746  1.00  0.00    +0.348 HD
BRANCH  25  27
ATOM     27  C   UNL     1      47.212  47.819  17.310  1.00  0.00    +0.177 C 
ATOM     28  C   UNL     1      46.241  48.059  18.463  1.00  0.00    +0.075 C 
ATOM     29  C   UNL     1      46.475  47.558  15.998  1.00  0.00    +0.075 C 
ENDBRANCH  25  27
ENDBRANCH  20  21
ENDBRANCH   3  20
TORSDOF 5
ENDMDL
MODEL 4
REMARK VINA RESULT:    -8.596      2.037      7.865
REMARK INTER + INTRA:         -12.209
REMARK INTER:                 -11.391
REMARK INTRA:                  -0.818
REMARK UNBOUND:                -1.100
REMARK SMILES CC1CCC2(CC1)NC(=O)N(CC(=O)NC[C@H]1CC[NH+](C(C)C)C1)C2=O
REMARK SMILES IDX 13 1 14 2 15 3 12 5 11 6 2 7 3 8 7 9 4 10 6 11 5 12 25 13
REMARK SMILES IDX 8 14 26 15 9 16 10 17 1 18 16 20 17 21 18 22 24 23 19 24
REMARK SMILES IDX 20 25 21 27 22 28 23 29
REMARK H PARENT 15 4 8 19 20 26
ROOT
ATOM      1  C   UNL     1      51.421  52.526  19.650  1.00  0.00    +0.240 C 
ATOM      2  O   UNL     1      52.199  52.564  20.604  1.00  0.00    -0.273 OA
ATOM      3  N   UNL     1      50.259  53.266  19.641  1.00  0.00    -0.354 N 
ATOM      4  H   UNL     1      49.845  53.404  18.716  1.00  0.00    +0.163 HD
ENDROOT
BRANCH   1   5
ATOM      5  C   UNL     1      51.691  51.686  18.402  1.00  0.00    +0.230 C 
BRANCH   5   6
ATOM      6  N   UNL     1      50.741  50.598  18.321  1.00  0.00    -0.253 N 
ATOM      7  C   UNL     1      46.825  47.274  16.888  1.00  0.00    -0.014 C 
ATOM      8  C   UNL     1      48.300  47.121  16.488  1.00  0.00    +0.006 C 
ATOM      9  C   UNL     1      46.689  48.073  18.192  1.00  0.00    +0.006 C 
ATOM     10  C   UNL     1      49.051  48.453  16.440  1.00  0.00    +0.039 C 
ATOM     11  C   UNL     1      47.428  49.413  18.156  1.00  0.00    +0.039 C 
ATOM     12  C   UNL     1      48.888  49.252  17.736  1.00  0.00    +0.121 C 
ATOM     13  C   UNL     1      49.583  50.619  17.600  1.00  0.00    +0.256 C 
ATOM     14  N   UNL     1      49.701  48.702  18.804  1.00  0.00    -0.323 N 
ATOM     15  O   UNL     1      49.165  51.592  16.987  1.00  0.00    -0.272 OA
ATOM     16  C   UNL     1      50.770  49.504  19.124  1.00  0.00    +0.325 C 
ATOM     17  O   UNL     1      51.549  49.289  20.036  1.00  0.00    -0.248 OA
ATOM     18  C   UNL     1      45.995  47.890  15.757  1.00  0.00    +0.007 C 
ATOM     19  H   UNL     1      49.567  47.799  19.244  1.00  0.00    +0.166 HD
ENDBRANCH   5   6
ENDBRANCH   1   5
BRANCH   3  20
ATOM     20  C   UNL     1      49.982  54.311  20.611  1.00  0.00    +0.125 C 
BRANCH  20  21
ATOM     21  C   UNL     1      50.218  55.771  20.177  1.00  0.00    +0.069 C 
ATOM     22  C   UNL     1      49.573  56.838  21.054  1.00  0.00    +0.072 C 
ATOM     23  C   UNL     1      51.679  56.202  20.125  1.00  0.00    +0.267 C 
ATOM     24  C   UNL     1      50.642  57.289  22.043  1.00  0.00    +0.263 C 
ATOM     25  N   UNL     1      51.947  56.784  21.483  1.00  0.00    -0.333 N 
ATOM     26  H   UNL     1      52.162  55.931  22.043  1.00  0.00    +0.348 HD
BRANCH  25  27
ATOM     27  C   UNL     1      53.186  57.628  21.633  1.00  0.00    +0.177 C 
ATOM     28  C   UNL     1      54.156  57.451  20.469  1.00  0.00    +0.075 C 
ATOM     29  C   UNL     1      52.780  59.090  21.812  1.00  0.00    +0.075 C 
ENDBRANCH  25  27
ENDBRANCH  20  21
ENDBRANCH   3  20
TORSDOF 5
ENDMDL
MODEL 5
REMARK VINA RESULT:    -8.404      1.851      7.487
REMARK INTER + INTRA:         -11.961
REMARK INTER:                 -11.513
REMARK INTRA:                  -0.448
REMARK UNBOUND:                -1.100
REMARK SMILES CC1CCC2(CC1)NC(=O)N(CC(=O)NC[C@H]1CC[NH+](C(C)C)C1)C2=O
REMARK SMILES IDX 13 1 14 2 15 3 12 5 11 6 2 7 3 8 7 9 4 10 6 11 5 12 25 13
REMARK SMILES IDX 8 14 26 15 9 16 10 17 1 18 16 20 17 21 18 22 24 23 19 24
REMARK SMILES IDX 20 25 21 27 22 28 23 29
REMARK H PARENT 15 4 8 19 20 26
ROOT
ATOM      1  C   UNL     1      51.821  51.447  20.405  1.00  0.00    +0.240 C 
ATOM      2  O   UNL     1      52.443  51.178  21.434  1.00  0.00    -0.273 OA
ATOM      3  N   UNL     1      50.986  52.541  20.336  1.00  0.00    -0.354 N 
ATOM      4  H   UNL     1      50.759  52.848  19.388  1.00  0.00    +0.163 HD
ENDROOT
BRANCH   1   5
ATOM      5  C   UNL     1      51.944  50.616  19.129  1.00  0.00    +0.230 C 
BRANCH   5   6
ATOM      6  N   UNL     1      50.696  49.934  18.858  1.00  0.00    -0.253 N 
ATOM      7  C   UNL     1      46.305  47.935  16.587  1.00  0.00    -0.014 C 
ATOM      8  C   UNL     1      47.645  47.196  16.713  1.00  0.00    +0.006 C 
ATOM      9  C   UNL     1      46.163  49.005  17.679  1.00  0.00    +0.006 C 
ATOM     10  C   UNL     1      48.849  48.139  16.771  1.00  0.00    +0.039 C 
ATOM     11  C   UNL     1      47.355  49.962  17.742  1.00  0.00    +0.039 C 
ATOM     12  C   UNL     1      48.684  49.216  17.846  1.00  0.00    +0.121 C 
ATOM     13  C   UNL     1      49.876  50.190  17.799  1.00  0.00    +0.256 C 
ATOM     14  N   UNL     1      48.901  48.676  19.175  1.00  0.00    -0.323 N 
ATOM     15  O   UNL     1      50.057  51.082  16.981  1.00  0.00    -0.272 OA
ATOM     16  C   UNL     1      50.075  49.109  19.740  1.00  0.00    +0.325 C 
ATOM     17  O   UNL     1      50.436  48.850  20.875  1.00  0.00    -0.248 OA
ATOM     18  C   UNL     1      46.118  48.527  15.187  1.00  0.00    +0.007 C 
ATOM     19  H   UNL     1      48.308  48.000  19.642  1.00  0.00    +0.166 HD
ENDBRANCH   5   6
ENDBRANCH   1   5
BRANCH   3  20
ATOM     20  C   UNL     1      50.959  53.578  21.352  1.00  0.00    +0.125 C 
BRANCH  20  21
ATOM     21  C   UNL     1      51.437  54.986  20.949  1.00  0.00    +0.069 C 
ATOM     22  C   UNL     1      51.391  55.303  19.459  1.00  0.00    +0.072 C 
ATOM     23  C   UNL     1      50.656  56.138  21.572  1.00  0.00    +0.267 C 
ATOM     24  C   UNL     1      50.071  56.022  19.210  1.00  0.00    +0.263 C 
ATOM     25  N   UNL     1      49.580  56.446  20.571  1.00  0.00    -0.333 N 
ATOM     26  H   UNL     1      48.850  55.745  20.819  1.00  0.00    +0.348 HD
BRANCH  25  27
ATOM     27  C   UNL     1      48.868  57.765  20.717  1.00  0.00    +0.177 C 
ATOM     28  C   UNL     1      47.380  57.663  20.395  1.00  0.00    +0.075 C 
ATOM     29  C   UNL     1      49.104  58.311  22.125  1.00  0.00    +0.075 C 
ENDBRANCH  25  27
ENDBRANCH  20  21
ENDBRANCH   3  20
TORSDOF 5
ENDMDL
