MODEL 1
REMARK VINA RESULT:    -6.473      0.000      0.000
REMARK INTER + INTRA:          -8.644
REMARK INTER:                  -8.176
REMARK INTRA:                  -0.467
REMARK UNBOUND:                -0.467
REMARK SMILES CC(C)(C)[C@@H]1N=C(CSc2nc(N)n[nH]2)CS1
REMARK SMILES IDX 8 1 7 2 5 3 6 4 17 5 16 6 2 7 1 8 3 9 4 10 9 11 10 12 15 13
REMARK SMILES IDX 11 14 14 15 12 16 13 18
REMARK H PARENT 15 17 13 19 13 20
ROOT
ATOM      1  C   UNL     1      48.797  51.598  16.568  1.00  0.00    +0.130 C 
ENDROOT
BRANCH   1   2
ATOM      2  C   UNL     1      48.504  50.133  16.791  1.00  0.00    +0.034 C 
ATOM      3  C   UNL     1      47.484  48.307  17.706  1.00  0.00    +0.168 C 
ATOM      4  N   UNL     1      47.627  49.779  17.684  1.00  0.00    -0.278 NA
ATOM      5  S   UNL     1      48.456  47.542  16.369  1.00  0.00    -0.128 SA
ATOM      6  C   UNL     1      49.246  49.104  15.974  1.00  0.00    +0.123 C 
BRANCH   3   7
ATOM      7  C   UNL     1      45.967  47.929  17.712  1.00  0.00    -0.006 C 
ATOM      8  C   UNL     1      45.575  47.408  19.115  1.00  0.00    +0.014 C 
ATOM      9  C   UNL     1      45.676  46.796  16.705  1.00  0.00    +0.014 C 
ATOM     10  C   UNL     1      45.062  49.132  17.376  1.00  0.00    +0.014 C 
ENDBRANCH   3   7
ENDBRANCH   1   2
BRANCH   1  11
ATOM     11  S   UNL     1      49.438  52.354  18.087  1.00  0.00    -0.081 SA
BRANCH  11  12
ATOM     12  C   UNL     1      50.807  51.366  18.405  1.00  0.00    +0.185 A 
ATOM     13  N   UNL     1      51.947  51.479  17.675  1.00  0.00    -0.252 N 
ATOM     14  N   UNL     1      50.952  50.442  19.321  1.00  0.00    -0.186 NA
ATOM     15  N   UNL     1      52.877  50.614  18.114  1.00  0.00    -0.135 NA
ATOM     16  C   UNL     1      52.218  49.997  19.092  1.00  0.00    +0.240 A 
ATOM     17  H   UNL     1      52.150  52.099  16.900  1.00  0.00    +0.192 HD
BRANCH  16  18
ATOM     18  N   UNL     1      52.705  49.030  19.861  1.00  0.00    -0.366 N 
ATOM     19  H   UNL     1      52.477  48.079  19.606  1.00  0.00    +0.159 HD
ATOM     20  H   UNL     1      52.700  49.204  20.858  1.00  0.00    +0.159 HD
ENDBRANCH  16  18
ENDBRANCH  11  12
ENDBRANCH   1  11
TORSDOF 5
ENDMDL
MODEL 2
REMARK VINA RESULT:    -6.452      5.156      7.132
REMARK INTER + INTRA:          -8.617
REMARK INTER:                  -8.373
REMARK INTRA:                  -0.244
REMARK UNBOUND:                -0.467
REMARK SMILES CC(C)(C)[C@@H]1N=C(CSc2nc(N)n[nH]2)CS1
REMARK SMILES IDX 8 1 7 2 5 3 6 4 17 5 16 6 2 7 1 8 3 9 4 10 9 11 10 12 15 13
REMARK SMILES IDX 11 14 14 15 12 16 13 18
REMARK H PARENT 15 17 13 19 13 20
ROOT
ATOM      1  C   UNL     1      52.013  53.908  21.190  1.00  0.00    +0.130 C 
ENDROOT
BRANCH   1   2
ATOM      2  C   UNL     1      51.291  55.230  21.084  1.00  0.00    +0.034 C 
ATOM      3  C   UNL     1      49.964  56.834  20.146  1.00  0.00    +0.168 C 
ATOM      4  N   UNL     1      50.605  55.506  20.015  1.00  0.00    -0.278 NA
ATOM      5  S   UNL     1      50.229  57.518  21.813  1.00  0.00    -0.128 SA
ATOM      6  C   UNL     1      51.389  56.213  22.226  1.00  0.00    +0.123 C 
BRANCH   3   7
ATOM      7  C   UNL     1      48.466  56.737  19.709  1.00  0.00    -0.006 C 
ATOM      8  C   UNL     1      47.999  55.266  19.803  1.00  0.00    +0.014 C 
ATOM      9  C   UNL     1      48.290  57.181  18.240  1.00  0.00    +0.014 C 
ATOM     10  C   UNL     1      47.539  57.593  20.597  1.00  0.00    +0.014 C 
ENDBRANCH   3   7
ENDBRANCH   1   2
BRANCH   1  11
ATOM     11  S   UNL     1      50.916  52.641  21.882  1.00  0.00    -0.081 SA
BRANCH  11  12
ATOM     12  C   UNL     1      51.471  51.233  21.069  1.00  0.00    +0.185 A 
ATOM     13  N   UNL     1      50.916  50.015  21.301  1.00  0.00    -0.252 N 
ATOM     14  N   UNL     1      52.423  51.128  20.177  1.00  0.00    -0.186 NA
ATOM     15  N   UNL     1      51.506  49.074  20.545  1.00  0.00    -0.135 NA
ATOM     16  C   UNL     1      52.423  49.794  19.903  1.00  0.00    +0.240 A 
ATOM     17  H   UNL     1      50.163  49.767  21.931  1.00  0.00    +0.192 HD
BRANCH  16  18
ATOM     18  N   UNL     1      53.290  49.323  19.014  1.00  0.00    -0.366 N 
ATOM     19  H   UNL     1      52.942  48.656  18.339  1.00  0.00    +0.159 HD
ATOM     20  H   UNL     1      54.219  49.117  19.358  1.00  0.00    +0.159 HD
ENDBRANCH  16  18
ENDBRANCH  11  12
ENDBRANCH   1  11
TORSDOF 5
ENDMDL
MODEL 3
REMARK VINA RESULT:    -6.321      2.415      3.304
REMARK INTER + INTRA:          -8.452
REMARK INTER:                  -8.195
REMARK INTRA:                  -0.256
REMARK UNBOUND:                -0.467
REMARK SMILES CC(C)(C)[C@@H]1N=C(CSc2nc(N)n[nH]2)CS1
REMARK SMILES IDX 8 1 7 2 5 3 6 4 17 5 16 6 2 7 1 8 3 9 4 10 9 11 10 12 15 13
REMARK SMILES IDX 11 14 14 15 12 16 13 18
REMARK H PARENT 15 17 13 19 13 20
ROOT
ATOM      1  C   UNL     1      50.223  53.662  19.690  1.00  0.00    +0.130 C 
ENDROOT
BRANCH   1   2
ATOM      2  C   UNL     1      49.531  53.148  18.450  1.00  0.00    +0.034 C 
ATOM      3  C   UNL     1      48.901  51.625  16.870  1.00  0.00    +0.168 C 
ATOM      4  N   UNL     1      49.693  51.910  18.088  1.00  0.00    -0.278 NA
ATOM      5  S   UNL     1      47.864  53.053  16.424  1.00  0.00    -0.128 SA
ATOM      6  C   UNL     1      48.667  54.090  17.648  1.00  0.00    +0.123 C 
BRANCH   3   7
ATOM      7  C   UNL     1      48.122  50.282  17.056  1.00  0.00    -0.006 C 
ATOM      8  C   UNL     1      46.624  50.587  17.290  1.00  0.00    +0.014 C 
ATOM      9  C   UNL     1      48.633  49.513  18.293  1.00  0.00    +0.014 C 
ATOM     10  C   UNL     1      48.238  49.362  15.822  1.00  0.00    +0.014 C 
ENDBRANCH   3   7
ENDBRANCH   1   2
BRANCH   1  11
ATOM     11  S   UNL     1      52.014  53.758  19.422  1.00  0.00    -0.081 SA
BRANCH  11  12
ATOM     12  C   UNL     1      52.410  52.103  19.187  1.00  0.00    +0.185 A 
ATOM     13  N   UNL     1      52.705  51.613  17.955  1.00  0.00    -0.252 N 
ATOM     14  N   UNL     1      52.489  51.149  20.079  1.00  0.00    -0.186 NA
ATOM     15  N   UNL     1      52.991  50.302  18.024  1.00  0.00    -0.135 NA
ATOM     16  C   UNL     1      52.824  50.067  19.323  1.00  0.00    +0.240 A 
ATOM     17  H   UNL     1      52.732  52.096  17.065  1.00  0.00    +0.192 HD
BRANCH  16  18
ATOM     18  N   UNL     1      52.989  48.894  19.923  1.00  0.00    -0.366 N 
ATOM     19  H   UNL     1      52.288  48.617  20.596  1.00  0.00    +0.159 HD
ATOM     20  H   UNL     1      53.935  48.656  20.190  1.00  0.00    +0.159 HD
ENDBRANCH  16  18
ENDBRANCH  11  12
ENDBRANCH   1  11
TORSDOF 5
ENDMDL
MODEL 4
REMARK VINA RESULT:    -6.311      3.915      4.960
REMARK INTER + INTRA:          -8.439
REMARK INTER:                  -8.182
REMARK INTRA:                  -0.257
REMARK UNBOUND:                -0.467
REMARK SMILES CC(C)(C)[C@@H]1N=C(CSc2nc(N)n[nH]2)CS1
REMARK SMILES IDX 8 1 7 2 5 3 6 4 17 5 16 6 2 7 1 8 3 9 4 10 9 11 10 12 15 13
REMARK SMILES IDX 11 14 14 15 12 16 13 18
REMARK H PARENT 15 17 13 19 13 20
ROOT
ATOM      1  C   UNL     1      50.496  53.045  19.709  1.00  0.00    +0.130 C 
ENDROOT
BRANCH   1   2
ATOM      2  C   UNL     1      49.757  52.488  18.516  1.00  0.00    +0.034 C 
ATOM      3  C   UNL     1      49.020  50.899  17.051  1.00  0.00    +0.168 C 
ATOM      4  N   UNL     1      49.846  51.221  18.236  1.00  0.00    -0.278 NA
ATOM      5  S   UNL     1      48.056  52.350  16.521  1.00  0.00    -0.128 SA
ATOM      6  C   UNL     1      48.933  53.421  17.662  1.00  0.00    +0.123 C 
BRANCH   3   7
ATOM      7  C   UNL     1      48.173  49.617  17.337  1.00  0.00    -0.006 C 
ATOM      8  C   UNL     1      48.454  48.563  16.241  1.00  0.00    +0.014 C 
ATOM      9  C   UNL     1      46.662  49.932  17.293  1.00  0.00    +0.014 C 
ATOM     10  C   UNL     1      48.505  48.988  18.706  1.00  0.00    +0.014 C 
ENDBRANCH   3   7
ENDBRANCH   1   2
BRANCH   1  11
ATOM     11  S   UNL     1      51.884  54.079  19.169  1.00  0.00    -0.081 SA
BRANCH  11  12
ATOM     12  C   UNL     1      52.067  55.131  20.515  1.00  0.00    +0.185 A 
ATOM     13  N   UNL     1      51.780  54.722  21.778  1.00  0.00    -0.252 N 
ATOM     14  N   UNL     1      52.480  56.373  20.530  1.00  0.00    -0.186 NA
ATOM     15  N   UNL     1      52.010  55.710  22.659  1.00  0.00    -0.135 NA
ATOM     16  C   UNL     1      52.408  56.691  21.852  1.00  0.00    +0.240 A 
ATOM     17  H   UNL     1      51.442  53.822  22.096  1.00  0.00    +0.192 HD
BRANCH  16  18
ATOM     18  N   UNL     1      52.765  57.911  22.237  1.00  0.00    -0.366 N 
ATOM     19  H   UNL     1      52.025  58.539  22.521  1.00  0.00    +0.159 HD
ATOM     20  H   UNL     1      53.500  58.354  21.701  1.00  0.00    +0.159 HD
ENDBRANCH  16  18
ENDBRANCH  11  12
ENDBRANCH   1  11
TORSDOF 5
ENDMDL
MODEL 5
REMARK VINA RESULT:    -6.310      3.029      3.861
REMARK INTER + INTRA:          -8.437
REMARK INTER:                  -8.059
REMARK INTRA:                  -0.378
REMARK UNBOUND:                -0.467
REMARK SMILES CC(C)(C)[C@@H]1N=C(CSc2nc(N)n[nH]2)CS1
REMARK SMILES IDX 8 1 7 2 5 3 6 4 17 5 16 6 2 7 1 8 3 9 4 10 9 11 10 12 15 13
REMARK SMILES IDX 11 14 14 15 12 16 13 18
REMARK H PARENT 15 17 13 19 13 20
ROOT
ATOM      1  C   UNL     1      50.688  50.292  20.415  1.00  0.00    +0.130 C 
ENDROOT
BRANCH   1   2
ATOM      2  C   UNL     1      50.164  50.023  19.025  1.00  0.00    +0.034 C 
ATOM      3  C   UNL     1      48.852  49.067  17.420  1.00  0.00    +0.168 C 
ATOM      4  N   UNL     1      49.226  49.139  18.849  1.00  0.00    -0.278 NA
ATOM      5  S   UNL     1      49.715  50.351  16.459  1.00  0.00    -0.128 SA
ATOM      6  C   UNL     1      50.748  50.784  17.860  1.00  0.00    +0.123 C 
BRANCH   3   7
ATOM      7  C   UNL     1      47.294  49.083  17.285  1.00  0.00    -0.006 C 
ATOM      8  C   UNL     1      46.798  50.547  17.264  1.00  0.00    +0.014 C 
ATOM      9  C   UNL     1      46.628  48.389  18.493  1.00  0.00    +0.014 C 
ATOM     10  C   UNL     1      46.811  48.393  15.993  1.00  0.00    +0.014 C 
ENDBRANCH   3   7
ENDBRANCH   1   2
BRANCH   1  11
ATOM     11  S   UNL     1      52.351  51.012  20.337  1.00  0.00    -0.081 SA
BRANCH  11  12
ATOM     12  C   UNL     1      52.068  52.586  20.964  1.00  0.00    +0.185 A 
ATOM     13  N   UNL     1      51.827  52.790  22.284  1.00  0.00    -0.252 N 
ATOM     14  N   UNL     1      52.051  53.728  20.323  1.00  0.00    -0.186 NA
ATOM     15  N   UNL     1      51.648  54.098  22.535  1.00  0.00    -0.135 NA
ATOM     16  C   UNL     1      51.770  54.617  21.316  1.00  0.00    +0.240 A 
ATOM     17  H   UNL     1      51.776  52.114  23.036  1.00  0.00    +0.192 HD
BRANCH  16  18
ATOM     18  N   UNL     1      51.675  55.906  21.012  1.00  0.00    -0.366 N 
ATOM     19  H   UNL     1      51.970  56.569  21.716  1.00  0.00    +0.159 HD
ATOM     20  H   UNL     1      50.849  56.187  20.500  1.00  0.00    +0.159 HD
ENDBRANCH  16  18
ENDBRANCH  11  12
ENDBRANCH   1  11
TORSDOF 5
ENDMDL
