MODEL 1
REMARK VINA RESULT:    -7.292      0.000      0.000
REMARK INTER + INTRA:         -10.239
REMARK INTER:                  -9.850
REMARK INTRA:                  -0.389
REMARK UNBOUND:                -0.389
REMARK SMILES CC(C)(C)OC(=O)NNC(=O)N[C@@H]1CCN(CC(F)(F)F)C1
REMARK SMILES IDX 9 1 10 2 11 3 12 4 8 7 6 8 7 9 5 11 2 12 1 13 3 14 4 15
REMARK SMILES IDX 13 16 14 17 22 18 15 19 16 20 17 21 18 22 19 23 20 24 21 25
REMARK H PARENT 9 5 12 6 8 10
ROOT
ATOM      1  N   UNL     1      49.469  51.806  18.527  1.00  0.00    -0.247 N 
ATOM      2  C   UNL     1      50.715  52.205  18.969  1.00  0.00    +0.333 C 
ATOM      3  O   UNL     1      51.760  51.671  18.616  1.00  0.00    -0.247 OA
ATOM      4  N   UNL     1      50.630  53.254  19.851  1.00  0.00    -0.333 N 
ATOM      5  H   UNL     1      48.792  52.557  18.389  1.00  0.00    +0.193 HD
ATOM      6  H   UNL     1      49.763  53.293  20.371  1.00  0.00    +0.165 HD
ENDROOT
BRANCH   1   7
ATOM      7  N   UNL     1      49.468  50.863  17.470  1.00  0.00    -0.231 N 
ATOM      8  C   UNL     1      49.023  49.596  17.756  1.00  0.00    +0.426 C 
ATOM      9  O   UNL     1      48.907  49.159  18.894  1.00  0.00    -0.223 OA
ATOM     10  H   UNL     1      49.228  51.230  16.552  1.00  0.00    +0.195 HD
BRANCH   8  11
ATOM     11  O   UNL     1      48.727  48.948  16.607  1.00  0.00    -0.443 OA
BRANCH  11  12
ATOM     12  C   UNL     1      47.375  48.490  16.342  1.00  0.00    +0.106 C 
ATOM     13  C   UNL     1      47.212  48.615  14.820  1.00  0.00    +0.056 C 
ATOM     14  C   UNL     1      47.200  47.019  16.733  1.00  0.00    +0.056 C 
ATOM     15  C   UNL     1      46.339  49.391  17.022  1.00  0.00    +0.056 C 
ENDBRANCH  11  12
ENDBRANCH   8  11
ENDBRANCH   1   7
BRANCH   4  16
ATOM     16  C   UNL     1      51.827  53.761  20.510  1.00  0.00    +0.099 C 
ATOM     17  C   UNL     1      51.678  53.793  22.035  1.00  0.00    +0.042 C 
ATOM     18  C   UNL     1      52.130  55.218  20.116  1.00  0.00    +0.109 C 
ATOM     19  C   UNL     1      51.544  55.269  22.371  1.00  0.00    +0.087 C 
ATOM     20  N   UNL     1      52.422  55.897  21.385  1.00  0.00    -0.293 NA
BRANCH  20  21
ATOM     21  C   UNL     1      52.252  57.366  21.325  1.00  0.00    +0.200 C 
BRANCH  21  22
ATOM     22  C   UNL     1      53.457  58.246  21.713  1.00  0.00    +0.401 C 
ATOM     23  F   UNL     1      54.284  57.624  22.581  1.00  0.00    -0.170 F 
ATOM     24  F   UNL     1      54.179  58.606  20.628  1.00  0.00    -0.170 F 
ATOM     25  F   UNL     1      53.030  59.387  22.304  1.00  0.00    -0.170 F 
ENDBRANCH  21  22
ENDBRANCH  20  21
ENDBRANCH   4  16
TORSDOF 6
ENDMDL
MODEL 2
REMARK VINA RESULT:    -7.161      2.637      3.023
REMARK INTER + INTRA:         -10.062
REMARK INTER:                  -9.550
REMARK INTRA:                  -0.512
REMARK UNBOUND:                -0.389
REMARK SMILES CC(C)(C)OC(=O)NNC(=O)N[C@@H]1CCN(CC(F)(F)F)C1
REMARK SMILES IDX 9 1 10 2 11 3 12 4 8 7 6 8 7 9 5 11 2 12 1 13 3 14 4 15
REMARK SMILES IDX 13 16 14 17 22 18 15 19 16 20 17 21 18 22 19 23 20 24 21 25
REMARK H PARENT 9 5 12 6 8 10
ROOT
ATOM      1  N   UNL     1      50.184  49.797  18.413  1.00  0.00    -0.247 N 
ATOM      2  C   UNL     1      50.142  51.123  18.027  1.00  0.00    +0.333 C 
ATOM      3  O   UNL     1      49.578  51.513  17.012  1.00  0.00    -0.247 OA
ATOM      4  N   UNL     1      50.816  51.931  18.910  1.00  0.00    -0.333 N 
ATOM      5  H   UNL     1      50.138  49.632  19.418  1.00  0.00    +0.193 HD
ATOM      6  H   UNL     1      51.566  51.470  19.409  1.00  0.00    +0.165 HD
ENDROOT
BRANCH   1   7
ATOM      7  N   UNL     1      49.356  48.919  17.672  1.00  0.00    -0.231 N 
ATOM      8  C   UNL     1      48.193  48.497  18.266  1.00  0.00    +0.426 C 
ATOM      9  O   UNL     1      47.972  48.591  19.467  1.00  0.00    -0.223 OA
ATOM     10  H   UNL     1      49.314  49.093  16.670  1.00  0.00    +0.195 HD
BRANCH   8  11
ATOM     11  O   UNL     1      47.357  47.999  17.328  1.00  0.00    -0.443 OA
BRANCH  11  12
ATOM     12  C   UNL     1      46.068  48.618  17.079  1.00  0.00    +0.106 C 
ATOM     13  C   UNL     1      45.745  48.273  15.618  1.00  0.00    +0.056 C 
ATOM     14  C   UNL     1      44.980  48.017  17.975  1.00  0.00    +0.056 C 
ATOM     15  C   UNL     1      46.148  50.142  17.218  1.00  0.00    +0.056 C 
ENDBRANCH  11  12
ENDBRANCH   8  11
ENDBRANCH   1   7
BRANCH   4  16
ATOM     16  C   UNL     1      50.974  53.352  18.632  1.00  0.00    +0.099 C 
ATOM     17  C   UNL     1      52.317  53.894  19.133  1.00  0.00    +0.042 C 
ATOM     18  C   UNL     1      49.915  54.204  19.357  1.00  0.00    +0.109 C 
ATOM     19  C   UNL     1      51.958  54.739  20.344  1.00  0.00    +0.087 C 
ATOM     20  N   UNL     1      50.669  55.312  19.956  1.00  0.00    -0.293 NA
BRANCH  20  21
ATOM     21  C   UNL     1      49.971  55.963  21.087  1.00  0.00    +0.200 C 
BRANCH  21  22
ATOM     22  C   UNL     1      48.880  57.001  20.757  1.00  0.00    +0.401 C 
ATOM     23  F   UNL     1      48.582  57.782  21.817  1.00  0.00    -0.170 F 
ATOM     24  F   UNL     1      49.252  57.804  19.734  1.00  0.00    -0.170 F 
ATOM     25  F   UNL     1      47.740  56.375  20.379  1.00  0.00    -0.170 F 
ENDBRANCH  21  22
ENDBRANCH  20  21
ENDBRANCH   4  16
TORSDOF 6
ENDMDL
MODEL 3
REMARK VINA RESULT:    -6.465      1.865      2.456
REMARK INTER + INTRA:          -9.122
REMARK INTER:                  -9.547
REMARK INTRA:                   0.425
REMARK UNBOUND:                -0.389
REMARK SMILES CC(C)(C)OC(=O)NNC(=O)N[C@@H]1CCN(CC(F)(F)F)C1
REMARK SMILES IDX 9 1 10 2 11 3 12 4 8 7 6 8 7 9 5 11 2 12 1 13 3 14 4 15
REMARK SMILES IDX 13 16 14 17 22 18 15 19 16 20 17 21 18 22 19 23 20 24 21 25
REMARK H PARENT 9 5 12 6 8 10
ROOT
ATOM      1  N   UNL     1      49.724  49.976  17.582  1.00  0.00    -0.247 N 
ATOM      2  C   UNL     1      50.445  50.145  18.749  1.00  0.00    +0.333 C 
ATOM      3  O   UNL     1      50.480  49.313  19.647  1.00  0.00    -0.247 OA
ATOM      4  N   UNL     1      51.096  51.354  18.773  1.00  0.00    -0.333 N 
ATOM      5  H   UNL     1      50.156  50.359  16.741  1.00  0.00    +0.193 HD
ATOM      6  H   UNL     1      50.650  52.080  18.228  1.00  0.00    +0.165 HD
ENDROOT
BRANCH   1   7
ATOM      7  N   UNL     1      49.179  48.684  17.383  1.00  0.00    -0.231 N 
ATOM      8  C   UNL     1      47.861  48.497  17.718  1.00  0.00    +0.426 C 
ATOM      9  O   UNL     1      47.226  49.266  18.429  1.00  0.00    -0.223 OA
ATOM     10  H   UNL     1      49.510  48.189  16.557  1.00  0.00    +0.195 HD
BRANCH   8  11
ATOM     11  O   UNL     1      47.398  47.370  17.132  1.00  0.00    -0.443 OA
BRANCH  11  12
ATOM     12  C   UNL     1      46.333  47.431  16.148  1.00  0.00    +0.106 C 
ATOM     13  C   UNL     1      45.174  48.133  16.871  1.00  0.00    +0.056 C 
ATOM     14  C   UNL     1      46.739  48.279  14.938  1.00  0.00    +0.056 C 
ATOM     15  C   UNL     1      45.876  46.027  15.736  1.00  0.00    +0.056 C 
ENDBRANCH  11  12
ENDBRANCH   8  11
ENDBRANCH   1   7
BRANCH   4  16
ATOM     16  C   UNL     1      51.834  51.768  19.959  1.00  0.00    +0.099 C 
ATOM     17  C   UNL     1      50.937  51.847  21.200  1.00  0.00    +0.042 C 
ATOM     18  C   UNL     1      52.419  53.185  19.811  1.00  0.00    +0.109 C 
ATOM     19  C   UNL     1      50.779  53.336  21.459  1.00  0.00    +0.087 C 
ATOM     20  N   UNL     1      52.086  53.863  21.069  1.00  0.00    -0.293 NA
BRANCH  20  21
ATOM     21  C   UNL     1      52.097  55.340  20.969  1.00  0.00    +0.200 C 
BRANCH  21  22
ATOM     22  C   UNL     1      51.815  56.150  22.250  1.00  0.00    +0.401 C 
ATOM     23  F   UNL     1      52.067  55.437  23.369  1.00  0.00    -0.170 F 
ATOM     24  F   UNL     1      52.555  57.280  22.296  1.00  0.00    -0.170 F 
ATOM     25  F   UNL     1      50.514  56.523  22.289  1.00  0.00    -0.170 F 
ENDBRANCH  21  22
ENDBRANCH  20  21
ENDBRANCH   4  16
TORSDOF 6
ENDMDL
MODEL 4
REMARK VINA RESULT:    -6.402      6.012      9.719
REMARK INTER + INTRA:          -9.036
REMARK INTER:                  -8.953
REMARK INTRA:                  -0.084
REMARK UNBOUND:                -0.389
REMARK SMILES CC(C)(C)OC(=O)NNC(=O)N[C@@H]1CCN(CC(F)(F)F)C1
REMARK SMILES IDX 9 1 10 2 11 3 12 4 8 7 6 8 7 9 5 11 2 12 1 13 3 14 4 15
REMARK SMILES IDX 13 16 14 17 22 18 15 19 16 20 17 21 18 22 19 23 20 24 21 25
REMARK H PARENT 9 5 12 6 8 10
ROOT
ATOM      1  N   UNL     1      50.896  52.930  18.290  1.00  0.00    -0.247 N 
ATOM      2  C   UNL     1      49.672  52.909  17.650  1.00  0.00    +0.333 C 
ATOM      3  O   UNL     1      48.826  53.785  17.781  1.00  0.00    -0.247 OA
ATOM      4  N   UNL     1      49.526  51.789  16.868  1.00  0.00    -0.333 N 
ATOM      5  H   UNL     1      51.678  52.558  17.752  1.00  0.00    +0.193 HD
ATOM      6  H   UNL     1      50.057  50.988  17.184  1.00  0.00    +0.165 HD
ENDROOT
BRANCH   1   7
ATOM      7  N   UNL     1      51.213  54.136  18.961  1.00  0.00    -0.231 N 
ATOM      8  C   UNL     1      51.639  54.041  20.263  1.00  0.00    +0.426 C 
ATOM      9  O   UNL     1      51.488  53.041  20.954  1.00  0.00    -0.223 OA
ATOM     10  H   UNL     1      51.658  54.854  18.392  1.00  0.00    +0.195 HD
BRANCH   8  11
ATOM     11  O   UNL     1      52.251  55.190  20.627  1.00  0.00    -0.443 OA
BRANCH  11  12
ATOM     12  C   UNL     1      51.651  56.067  21.616  1.00  0.00    +0.106 C 
ATOM     13  C   UNL     1      52.497  57.348  21.565  1.00  0.00    +0.056 C 
ATOM     14  C   UNL     1      50.207  56.420  21.245  1.00  0.00    +0.056 C 
ATOM     15  C   UNL     1      51.751  55.469  23.023  1.00  0.00    +0.056 C 
ENDBRANCH  11  12
ENDBRANCH   8  11
ENDBRANCH   1   7
BRANCH   4  16
ATOM     16  C   UNL     1      48.266  51.528  16.185  1.00  0.00    +0.099 C 
ATOM     17  C   UNL     1      47.105  51.338  17.166  1.00  0.00    +0.042 C 
ATOM     18  C   UNL     1      48.309  50.220  15.373  1.00  0.00    +0.109 C 
ATOM     19  C   UNL     1      46.802  49.849  17.111  1.00  0.00    +0.087 C 
ATOM     20  N   UNL     1      47.058  49.528  15.708  1.00  0.00    -0.293 NA
BRANCH  20  21
ATOM     21  C   UNL     1      47.100  48.070  15.456  1.00  0.00    +0.200 C 
BRANCH  21  22
ATOM     22  C   UNL     1      45.790  47.274  15.623  1.00  0.00    +0.401 C 
ATOM     23  F   UNL     1      44.698  48.053  15.472  1.00  0.00    -0.170 F 
ATOM     24  F   UNL     1      45.709  46.259  14.734  1.00  0.00    -0.170 F 
ATOM     25  F   UNL     1      45.732  46.727  16.860  1.00  0.00    -0.170 F 
ENDBRANCH  21  22
ENDBRANCH  20  21
ENDBRANCH   4  16
TORSDOF 6
ENDMDL
