MODEL 1
REMARK VINA RESULT:    -7.094      0.000      0.000
REMARK INTER + INTRA:         -11.358
REMARK INTER:                 -10.412
REMARK INTRA:                  -0.947
REMARK UNBOUND:                -0.947
REMARK SMILES Cc1csc(CC(=O)NNC(=O)C[NH+](C)CCC(F)(F)F)n1
REMARK SMILES IDX 13 1 11 2 10 3 12 4 9 6 7 7 8 8 6 10 5 11 2 12 3 13 22 14
REMARK SMILES IDX 4 15 1 16 14 17 15 18 16 20 17 21 18 22 19 23 20 24 21 25
REMARK H PARENT 10 5 9 9 14 19
ROOT
ATOM      1  C   UNL     1      51.966  50.935  17.782  1.00  0.00    +0.365 C 
ENDROOT
BRANCH   1   2
ATOM      2  C   UNL     1      52.359  52.139  18.637  1.00  0.00    +0.293 C 
ATOM      3  N   UNL     1      52.190  51.973  19.997  1.00  0.00    -0.263 N 
ATOM      4  O   UNL     1      52.787  53.151  18.078  1.00  0.00    -0.267 OA
ATOM      5  H   UNL     1      51.522  51.268  20.320  1.00  0.00    +0.191 HD
BRANCH   3   6
ATOM      6  N   UNL     1      52.116  53.161  20.757  1.00  0.00    -0.267 N 
ATOM      7  C   UNL     1      51.342  53.112  21.906  1.00  0.00    +0.245 C 
ATOM      8  O   UNL     1      50.627  52.137  22.151  1.00  0.00    -0.273 OA
ATOM      9  H   UNL     1      52.920  53.798  20.733  1.00  0.00    +0.191 HD
BRANCH   7  10
ATOM     10  C   UNL     1      51.387  54.350  22.777  1.00  0.00    +0.169 C 
BRANCH  10  11
ATOM     11  C   UNL     1      51.631  55.553  21.928  1.00  0.00    +0.102 A 
ATOM     12  C   UNL     1      52.714  57.206  20.921  1.00  0.00    +0.048 A 
ATOM     13  C   UNL     1      51.449  57.427  20.413  1.00  0.00    +0.090 A 
ATOM     14  N   UNL     1      52.810  56.133  21.796  1.00  0.00    -0.246 NA
ATOM     15  S   UNL     1      50.352  56.267  21.033  1.00  0.00    -0.127 S 
ATOM     16  C   UNL     1      53.936  57.992  20.609  1.00  0.00    +0.067 C 
ENDBRANCH  10  11
ENDBRANCH   7  10
ENDBRANCH   3   6
ENDBRANCH   1   2
BRANCH   1  17
ATOM     17  N   UNL     1      50.598  51.196  17.118  1.00  0.00    -0.329 N 
ATOM     18  C   UNL     1      50.414  50.432  15.840  1.00  0.00    +0.333 C 
ATOM     19  H   UNL     1      50.727  52.176  16.787  1.00  0.00    +0.348 HD
BRANCH  17  20
ATOM     20  C   UNL     1      49.409  51.262  18.039  1.00  0.00    +0.271 C 
BRANCH  20  21
ATOM     21  C   UNL     1      48.356  50.178  17.859  1.00  0.00    +0.176 C 
BRANCH  21  22
ATOM     22  C   UNL     1      48.594  48.975  18.730  1.00  0.00    +0.394 C 
ATOM     23  F   UNL     1      49.509  49.235  19.680  1.00  0.00    -0.171 F 
ATOM     24  F   UNL     1      47.450  48.604  19.343  1.00  0.00    -0.171 F 
ATOM     25  F   UNL     1      49.019  47.930  17.993  1.00  0.00    -0.171 F 
ENDBRANCH  21  22
ENDBRANCH  20  21
ENDBRANCH  17  20
ENDBRANCH   1  17
TORSDOF 8
ENDMDL
MODEL 2
REMARK VINA RESULT:    -6.925      2.842      3.945
REMARK INTER + INTRA:         -11.110
REMARK INTER:                 -10.004
REMARK INTRA:                  -1.106
REMARK UNBOUND:                -0.947
REMARK SMILES Cc1csc(CC(=O)NNC(=O)C[NH+](C)CCC(F)(F)F)n1
REMARK SMILES IDX 13 1 11 2 10 3 12 4 9 6 7 7 8 8 6 10 5 11 2 12 3 13 22 14
REMARK SMILES IDX 4 15 1 16 14 17 15 18 16 20 17 21 18 22 19 23 20 24 21 25
REMARK H PARENT 10 5 9 9 14 19
ROOT
ATOM      1  C   UNL     1      48.604  48.206  17.423  1.00  0.00    +0.365 C 
ENDROOT
BRANCH   1   2
ATOM      2  C   UNL     1      49.269  49.271  18.294  1.00  0.00    +0.293 C 
ATOM      3  N   UNL     1      50.281  48.812  19.112  1.00  0.00    -0.263 N 
ATOM      4  O   UNL     1      48.871  50.435  18.216  1.00  0.00    -0.267 OA
ATOM      5  H   UNL     1      50.293  47.819  19.359  1.00  0.00    +0.191 HD
BRANCH   3   6
ATOM      6  N   UNL     1      50.605  49.636  20.212  1.00  0.00    -0.267 N 
ATOM      7  C   UNL     1      51.858  50.229  20.192  1.00  0.00    +0.245 C 
ATOM      8  O   UNL     1      52.698  49.913  19.346  1.00  0.00    -0.273 OA
ATOM      9  H   UNL     1      49.839  50.123  20.690  1.00  0.00    +0.191 HD
BRANCH   7  10
ATOM     10  C   UNL     1      52.132  51.214  21.309  1.00  0.00    +0.169 C 
BRANCH  10  11
ATOM     11  C   UNL     1      51.402  52.489  21.044  1.00  0.00    +0.102 A 
ATOM     12  C   UNL     1      50.011  53.933  20.095  1.00  0.00    +0.048 A 
ATOM     13  C   UNL     1      50.503  54.731  21.110  1.00  0.00    +0.090 A 
ATOM     14  N   UNL     1      50.537  52.650  20.058  1.00  0.00    -0.246 NA
ATOM     15  S   UNL     1      51.643  53.862  22.046  1.00  0.00    -0.127 S 
ATOM     16  C   UNL     1      48.995  54.324  19.084  1.00  0.00    +0.067 C 
ENDBRANCH  10  11
ENDBRANCH   7  10
ENDBRANCH   3   6
ENDBRANCH   1   2
BRANCH   1  17
ATOM     17  N   UNL     1      47.724  48.887  16.354  1.00  0.00    -0.329 N 
ATOM     18  C   UNL     1      48.394  48.974  15.015  1.00  0.00    +0.333 C 
ATOM     19  H   UNL     1      47.743  49.874  16.688  1.00  0.00    +0.348 HD
BRANCH  17  20
ATOM     20  C   UNL     1      46.265  48.517  16.353  1.00  0.00    +0.271 C 
BRANCH  20  21
ATOM     21  C   UNL     1      45.476  48.883  17.601  1.00  0.00    +0.176 C 
BRANCH  21  22
ATOM     22  C   UNL     1      45.253  47.714  18.521  1.00  0.00    +0.394 C 
ATOM     23  F   UNL     1      46.100  47.745  19.564  1.00  0.00    -0.171 F 
ATOM     24  F   UNL     1      43.993  47.731  19.008  1.00  0.00    -0.171 F 
ATOM     25  F   UNL     1      45.419  46.550  17.862  1.00  0.00    -0.171 F 
ENDBRANCH  21  22
ENDBRANCH  20  21
ENDBRANCH  17  20
ENDBRANCH   1  17
TORSDOF 8
ENDMDL
MODEL 3
REMARK VINA RESULT:    -6.902      2.022      2.465
REMARK INTER + INTRA:         -11.077
REMARK INTER:                 -10.503
REMARK INTRA:                  -0.574
REMARK UNBOUND:                -0.947
REMARK SMILES Cc1csc(CC(=O)NNC(=O)C[NH+](C)CCC(F)(F)F)n1
REMARK SMILES IDX 13 1 11 2 10 3 12 4 9 6 7 7 8 8 6 10 5 11 2 12 3 13 22 14
REMARK SMILES IDX 4 15 1 16 14 17 15 18 16 20 17 21 18 22 19 23 20 24 21 25
REMARK H PARENT 10 5 9 9 14 19
ROOT
ATOM      1  C   UNL     1      51.298  49.268  19.741  1.00  0.00    +0.365 C 
ENDROOT
BRANCH   1   2
ATOM      2  C   UNL     1      52.052  50.255  20.631  1.00  0.00    +0.293 C 
ATOM      3  N   UNL     1      51.315  50.793  21.666  1.00  0.00    -0.263 N 
ATOM      4  O   UNL     1      53.233  50.502  20.376  1.00  0.00    -0.267 OA
ATOM      5  H   UNL     1      50.295  50.803  21.582  1.00  0.00    +0.191 HD
BRANCH   3   6
ATOM      6  N   UNL     1      51.814  51.994  22.217  1.00  0.00    -0.267 N 
ATOM      7  C   UNL     1      51.184  53.164  21.820  1.00  0.00    +0.245 C 
ATOM      8  O   UNL     1      50.352  53.161  20.910  1.00  0.00    -0.273 OA
ATOM      9  H   UNL     1      52.237  51.956  23.151  1.00  0.00    +0.191 HD
BRANCH   7  10
ATOM     10  C   UNL     1      51.642  54.424  22.524  1.00  0.00    +0.169 C 
BRANCH  10  11
ATOM     11  C   UNL     1      51.230  55.620  21.731  1.00  0.00    +0.102 A 
ATOM     12  C   UNL     1      49.970  57.277  20.965  1.00  0.00    +0.048 A 
ATOM     13  C   UNL     1      51.132  57.538  20.266  1.00  0.00    +0.090 A 
ATOM     14  N   UNL     1      50.031  56.169  21.799  1.00  0.00    -0.246 NA
ATOM     15  S   UNL     1      52.332  56.383  20.659  1.00  0.00    -0.127 S 
ATOM     16  C   UNL     1      48.711  58.064  20.905  1.00  0.00    +0.067 C 
ENDBRANCH  10  11
ENDBRANCH   7  10
ENDBRANCH   3   6
ENDBRANCH   1   2
BRANCH   1  17
ATOM     17  N   UNL     1      50.190  50.012  18.965  1.00  0.00    -0.329 N 
ATOM     18  C   UNL     1      50.729  51.077  18.056  1.00  0.00    +0.333 C 
ATOM     19  H   UNL     1      49.752  50.562  19.734  1.00  0.00    +0.348 HD
BRANCH  17  20
ATOM     20  C   UNL     1      49.071  49.165  18.420  1.00  0.00    +0.271 C 
BRANCH  20  21
ATOM     21  C   UNL     1      47.822  49.908  17.970  1.00  0.00    +0.176 C 
BRANCH  21  22
ATOM     22  C   UNL     1      46.682  48.990  17.628  1.00  0.00    +0.394 C 
ATOM     23  F   UNL     1      46.107  48.494  18.738  1.00  0.00    -0.171 F 
ATOM     24  F   UNL     1      45.735  49.654  16.931  1.00  0.00    -0.171 F 
ATOM     25  F   UNL     1      47.107  47.964  16.864  1.00  0.00    -0.171 F 
ENDBRANCH  21  22
ENDBRANCH  20  21
ENDBRANCH  17  20
ENDBRANCH   1  17
TORSDOF 8
ENDMDL
MODEL 4
REMARK VINA RESULT:    -6.837      3.831      6.868
REMARK INTER + INTRA:         -10.981
REMARK INTER:                  -9.749
REMARK INTRA:                  -1.232
REMARK UNBOUND:                -0.947
REMARK SMILES Cc1csc(CC(=O)NNC(=O)C[NH+](C)CCC(F)(F)F)n1
REMARK SMILES IDX 13 1 11 2 10 3 12 4 9 6 7 7 8 8 6 10 5 11 2 12 3 13 22 14
REMARK SMILES IDX 4 15 1 16 14 17 15 18 16 20 17 21 18 22 19 23 20 24 21 25
REMARK H PARENT 10 5 9 9 14 19
ROOT
ATOM      1  C   UNL     1      51.864  56.404  19.657  1.00  0.00    +0.365 C 
ENDROOT
BRANCH   1   2
ATOM      2  C   UNL     1      51.476  54.937  19.476  1.00  0.00    +0.293 C 
ATOM      3  N   UNL     1      52.369  54.025  19.999  1.00  0.00    -0.263 N 
ATOM      4  O   UNL     1      50.423  54.668  18.892  1.00  0.00    -0.267 OA
ATOM      5  H   UNL     1      53.340  54.320  20.136  1.00  0.00    +0.191 HD
BRANCH   3   6
ATOM      6  N   UNL     1      52.282  52.712  19.483  1.00  0.00    -0.267 N 
ATOM      7  C   UNL     1      51.897  51.723  20.375  1.00  0.00    +0.245 C 
ATOM      8  O   UNL     1      51.805  51.955  21.583  1.00  0.00    -0.273 OA
ATOM      9  H   UNL     1      52.043  52.600  18.492  1.00  0.00    +0.191 HD
BRANCH   7  10
ATOM     10  C   UNL     1      51.676  50.351  19.773  1.00  0.00    +0.169 C 
BRANCH  10  11
ATOM     11  C   UNL     1      50.407  50.346  18.988  1.00  0.00    +0.102 A 
ATOM     12  C   UNL     1      48.818  51.020  17.594  1.00  0.00    +0.048 A 
ATOM     13  C   UNL     1      48.301  49.787  17.942  1.00  0.00    +0.090 A 
ATOM     14  N   UNL     1      50.023  51.337  18.203  1.00  0.00    -0.246 NA
ATOM     15  S   UNL     1      49.343  49.000  19.050  1.00  0.00    -0.127 S 
ATOM     16  C   UNL     1      48.212  51.990  16.646  1.00  0.00    +0.067 C 
ENDBRANCH  10  11
ENDBRANCH   7  10
ENDBRANCH   3   6
ENDBRANCH   1   2
BRANCH   1  17
ATOM     17  N   UNL     1      51.905  56.748  21.160  1.00  0.00    -0.329 N 
ATOM     18  C   UNL     1      52.726  57.968  21.458  1.00  0.00    +0.333 C 
ATOM     19  H   UNL     1      52.501  55.973  21.520  1.00  0.00    +0.348 HD
BRANCH  17  20
ATOM     20  C   UNL     1      50.609  56.609  21.914  1.00  0.00    +0.271 C 
BRANCH  20  21
ATOM     21  C   UNL     1      49.614  57.748  21.759  1.00  0.00    +0.176 C 
BRANCH  21  22
ATOM     22  C   UNL     1      48.526  57.449  20.765  1.00  0.00    +0.394 C 
ATOM     23  F   UNL     1      48.810  57.972  19.559  1.00  0.00    -0.171 F 
ATOM     24  F   UNL     1      48.378  56.115  20.615  1.00  0.00    -0.171 F 
ATOM     25  F   UNL     1      47.345  57.945  21.185  1.00  0.00    -0.171 F 
ENDBRANCH  21  22
ENDBRANCH  20  21
ENDBRANCH  17  20
ENDBRANCH   1  17
TORSDOF 8
ENDMDL
MODEL 5
REMARK VINA RESULT:    -6.823      2.096      2.976
REMARK INTER + INTRA:         -10.961
REMARK INTER:                 -10.137
REMARK INTRA:                  -0.824
REMARK UNBOUND:                -0.947
REMARK SMILES Cc1csc(CC(=O)NNC(=O)C[NH+](C)CCC(F)(F)F)n1
REMARK SMILES IDX 13 1 11 2 10 3 12 4 9 6 7 7 8 8 6 10 5 11 2 12 3 13 22 14
REMARK SMILES IDX 4 15 1 16 14 17 15 18 16 20 17 21 18 22 19 23 20 24 21 25
REMARK H PARENT 10 5 9 9 14 19
ROOT
ATOM      1  C   UNL     1      49.942  50.379  16.077  1.00  0.00    +0.365 C 
ENDROOT
BRANCH   1   2
ATOM      2  C   UNL     1      49.934  51.203  17.364  1.00  0.00    +0.293 C 
ATOM      3  N   UNL     1      51.179  51.548  17.848  1.00  0.00    -0.263 N 
ATOM      4  O   UNL     1      48.850  51.496  17.874  1.00  0.00    -0.267 OA
ATOM      5  H   UNL     1      51.983  50.979  17.569  1.00  0.00    +0.191 HD
BRANCH   3   6
ATOM      6  N   UNL     1      51.231  51.906  19.213  1.00  0.00    -0.267 N 
ATOM      7  C   UNL     1      51.709  53.175  19.502  1.00  0.00    +0.245 C 
ATOM      8  O   UNL     1      52.217  53.878  18.624  1.00  0.00    -0.273 OA
ATOM      9  H   UNL     1      50.544  51.484  19.848  1.00  0.00    +0.191 HD
BRANCH   7  10
ATOM     10  C   UNL     1      51.628  53.589  20.956  1.00  0.00    +0.169 C 
BRANCH  10  11
ATOM     11  C   UNL     1      50.950  54.914  21.063  1.00  0.00    +0.102 A 
ATOM     12  C   UNL     1      49.385  56.475  20.868  1.00  0.00    +0.048 A 
ATOM     13  C   UNL     1      50.342  57.202  21.549  1.00  0.00    +0.090 A 
ATOM     14  N   UNL     1      49.744  55.164  20.586  1.00  0.00    -0.246 NA
ATOM     15  S   UNL     1      51.719  56.231  21.852  1.00  0.00    -0.127 S 
ATOM     16  C   UNL     1      48.049  56.964  20.440  1.00  0.00    +0.067 C 
ENDBRANCH  10  11
ENDBRANCH   7  10
ENDBRANCH   3   6
ENDBRANCH   1   2
BRANCH   1  17
ATOM     17  N   UNL     1      48.662  49.520  16.004  1.00  0.00    -0.329 N 
ATOM     18  C   UNL     1      48.091  49.441  14.618  1.00  0.00    +0.333 C 
ATOM     19  H   UNL     1      47.986  50.139  16.499  1.00  0.00    +0.348 HD
BRANCH  17  20
ATOM     20  C   UNL     1      48.665  48.245  16.804  1.00  0.00    +0.271 C 
BRANCH  20  21
ATOM     21  C   UNL     1      47.308  47.743  17.275  1.00  0.00    +0.176 C 
BRANCH  21  22
ATOM     22  C   UNL     1      46.770  48.513  18.449  1.00  0.00    +0.394 C 
ATOM     23  F   UNL     1      47.766  48.984  19.221  1.00  0.00    -0.171 F 
ATOM     24  F   UNL     1      46.038  49.566  18.026  1.00  0.00    -0.171 F 
ATOM     25  F   UNL     1      45.968  47.735  19.203  1.00  0.00    -0.171 F 
ENDBRANCH  21  22
ENDBRANCH  20  21
ENDBRANCH  17  20
ENDBRANCH   1  17
TORSDOF 8
ENDMDL
