MODEL 1
REMARK VINA RESULT:    -9.280      0.000      0.000
REMARK INTER + INTRA:         -13.378
REMARK INTER:                 -12.535
REMARK INTRA:                  -0.844
REMARK UNBOUND:                -0.844
REMARK SMILES CN(CC1=CN(c2ccccc2)N[C@@H]1c1ccc2c(c1)OCO2)Cc1[nH]cc[nH+]1
REMARK SMILES IDX 1 1 2 2 24 3 25 4 26 5 29 6 27 7 28 8 3 11 4 12 5 13 14 14
REMARK SMILES IDX 6 15 13 16 15 18 16 19 20 20 17 21 19 22 18 23 21 24 23 25
REMARK SMILES IDX 22 26 7 27 8 28 12 29 9 30 11 31 10 32
REMARK H PARENT 26 9 29 10 13 17
ROOT
ATOM      1  C   UNL     1      50.489  48.936  20.631  1.00  0.00    +0.106 C 
ATOM      2  N   UNL     1      50.677  50.293  20.110  1.00  0.00    -0.291 NA
ENDROOT
BRANCH   2   3
ATOM      3  C   UNL     1      51.926  50.891  20.595  1.00  0.00    +0.213 C 
BRANCH   3   4
ATOM      4  C   UNL     1      51.868  52.295  21.161  1.00  0.00    +0.266 A 
ATOM      5  N   UNL     1      51.535  52.654  22.413  1.00  0.00    -0.247 N 
ATOM      6  N   UNL     1      52.112  53.444  20.511  1.00  0.00    -0.247 N 
ATOM      7  C   UNL     1      51.565  54.024  22.555  1.00  0.00    +0.240 A 
ATOM      8  C   UNL     1      51.935  54.529  21.341  1.00  0.00    +0.240 A 
ATOM      9  H   UNL     1      51.294  51.994  23.149  1.00  0.00    +0.311 HD
ATOM     10  H   UNL     1      52.385  53.492  19.531  1.00  0.00    +0.311 HD
ENDBRANCH   3   4
ENDBRANCH   2   3
BRANCH   2  11
ATOM     11  C   UNL     1      50.573  50.332  18.643  1.00  0.00    +0.119 C 
BRANCH  11  12
ATOM     12  C   UNL     1      49.872  51.526  18.096  1.00  0.00    -0.015 C 
ATOM     13  C   UNL     1      49.668  52.738  18.621  1.00  0.00    +0.108 C 
ATOM     14  C   UNL     1      49.292  51.539  16.705  1.00  0.00    +0.134 C 
ATOM     15  N   UNL     1      49.011  53.576  17.758  1.00  0.00    -0.283 N 
ATOM     16  N   UNL     1      48.711  52.901  16.539  1.00  0.00    -0.218 NA
ATOM     17  H   UNL     1      47.695  52.818  16.470  1.00  0.00    +0.149 HD
BRANCH  14  18
ATOM     18  C   UNL     1      48.269  50.447  16.441  1.00  0.00    -0.021 A 
ATOM     19  C   UNL     1      48.464  49.551  15.361  1.00  0.00    +0.010 A 
ATOM     20  C   UNL     1      47.112  50.320  17.236  1.00  0.00    +0.056 A 
ATOM     21  C   UNL     1      47.542  48.534  15.088  1.00  0.00    +0.051 A 
ATOM     22  C   UNL     1      46.223  49.309  16.942  1.00  0.00    +0.166 A 
ATOM     23  C   UNL     1      46.433  48.440  15.898  1.00  0.00    +0.165 A 
ATOM     24  O   UNL     1      45.071  49.044  17.613  1.00  0.00    -0.454 OA
ATOM     25  O   UNL     1      45.438  47.522  15.781  1.00  0.00    -0.454 OA
ATOM     26  C   UNL     1      44.542  47.955  16.825  1.00  0.00    +0.468 C 
ENDBRANCH  14  18
BRANCH  15  27
ATOM     27  C   UNL     1      48.640  54.933  17.948  1.00  0.00    +0.057 A 
ATOM     28  C   UNL     1      48.612  55.504  19.234  1.00  0.00    +0.028 A 
ATOM     29  C   UNL     1      48.285  55.766  16.873  1.00  0.00    +0.028 A 
ATOM     30  C   UNL     1      48.250  56.841  19.438  1.00  0.00    +0.002 A 
ATOM     31  C   UNL     1      47.925  57.104  17.071  1.00  0.00    +0.002 A 
ATOM     32  C   UNL     1      47.910  57.641  18.353  1.00  0.00    +0.000 A 
ENDBRANCH  15  27
ENDBRANCH  11  12
ENDBRANCH   2  11
TORSDOF 6
ENDMDL
MODEL 2
REMARK VINA RESULT:    -9.278      1.892      3.685
REMARK INTER + INTRA:         -13.376
REMARK INTER:                 -12.152
REMARK INTRA:                  -1.224
REMARK UNBOUND:                -0.844
REMARK SMILES CN(CC1=CN(c2ccccc2)N[C@@H]1c1ccc2c(c1)OCO2)Cc1[nH]cc[nH+]1
REMARK SMILES IDX 1 1 2 2 24 3 25 4 26 5 29 6 27 7 28 8 3 11 4 12 5 13 14 14
REMARK SMILES IDX 6 15 13 16 15 18 16 19 20 20 17 21 19 22 18 23 21 24 23 25
REMARK SMILES IDX 22 26 7 27 8 28 12 29 9 30 11 31 10 32
REMARK H PARENT 26 9 29 10 13 17
ROOT
ATOM      1  C   UNL     1      51.625  54.978  22.151  1.00  0.00    +0.106 C 
ATOM      2  N   UNL     1      51.409  53.784  21.329  1.00  0.00    -0.291 NA
ENDROOT
BRANCH   2   3
ATOM      3  C   UNL     1      51.976  52.584  21.953  1.00  0.00    +0.213 C 
BRANCH   3   4
ATOM      4  C   UNL     1      51.971  51.298  21.155  1.00  0.00    +0.266 A 
ATOM      5  N   UNL     1      51.213  50.209  21.371  1.00  0.00    -0.247 N 
ATOM      6  N   UNL     1      52.742  50.994  20.098  1.00  0.00    -0.247 N 
ATOM      7  C   UNL     1      51.504  49.219  20.458  1.00  0.00    +0.240 A 
ATOM      8  C   UNL     1      52.478  49.721  19.644  1.00  0.00    +0.240 A 
ATOM      9  H   UNL     1      50.521  50.137  22.114  1.00  0.00    +0.311 HD
ATOM     10  H   UNL     1      53.430  51.630  19.699  1.00  0.00    +0.311 HD
ENDBRANCH   3   4
ENDBRANCH   2   3
BRANCH   2  11
ATOM     11  C   UNL     1      49.989  53.614  20.982  1.00  0.00    +0.119 C 
BRANCH  11  12
ATOM     12  C   UNL     1      49.460  54.606  20.004  1.00  0.00    -0.015 C 
ATOM     13  C   UNL     1      48.848  55.779  20.191  1.00  0.00    +0.108 C 
ATOM     14  C   UNL     1      49.621  54.419  18.517  1.00  0.00    +0.134 C 
ATOM     15  N   UNL     1      48.563  56.412  19.010  1.00  0.00    -0.283 N 
ATOM     16  N   UNL     1      48.989  55.620  17.904  1.00  0.00    -0.218 NA
ATOM     17  H   UNL     1      48.156  55.327  17.391  1.00  0.00    +0.149 HD
BRANCH  14  18
ATOM     18  C   UNL     1      49.029  53.126  17.979  1.00  0.00    -0.021 A 
ATOM     19  C   UNL     1      47.718  53.127  17.444  1.00  0.00    +0.010 A 
ATOM     20  C   UNL     1      49.751  51.917  18.024  1.00  0.00    +0.056 A 
ATOM     21  C   UNL     1      47.141  51.955  16.941  1.00  0.00    +0.051 A 
ATOM     22  C   UNL     1      49.155  50.780  17.520  1.00  0.00    +0.166 A 
ATOM     23  C   UNL     1      47.887  50.799  16.992  1.00  0.00    +0.165 A 
ATOM     24  O   UNL     1      49.716  49.542  17.478  1.00  0.00    -0.454 OA
ATOM     25  O   UNL     1      47.490  49.576  16.555  1.00  0.00    -0.454 OA
ATOM     26  C   UNL     1      48.625  48.769  16.932  1.00  0.00    +0.468 C 
ENDBRANCH  14  18
BRANCH  15  27
ATOM     27  C   UNL     1      47.943  57.673  18.806  1.00  0.00    +0.057 A 
ATOM     28  C   UNL     1      47.502  58.065  17.528  1.00  0.00    +0.028 A 
ATOM     29  C   UNL     1      47.741  58.584  19.857  1.00  0.00    +0.028 A 
ATOM     30  C   UNL     1      46.887  59.303  17.310  1.00  0.00    +0.002 A 
ATOM     31  C   UNL     1      47.124  59.822  19.645  1.00  0.00    +0.002 A 
ATOM     32  C   UNL     1      46.696  60.181  18.371  1.00  0.00    +0.000 A 
ENDBRANCH  15  27
ENDBRANCH  11  12
ENDBRANCH   2  11
TORSDOF 6
ENDMDL
MODEL 3
REMARK VINA RESULT:    -9.125      1.703      2.501
REMARK INTER + INTRA:         -13.169
REMARK INTER:                 -12.511
REMARK INTRA:                  -0.658
REMARK UNBOUND:                -0.844
REMARK SMILES CN(CC1=CN(c2ccccc2)N[C@@H]1c1ccc2c(c1)OCO2)Cc1[nH]cc[nH+]1
REMARK SMILES IDX 1 1 2 2 24 3 25 4 26 5 29 6 27 7 28 8 3 11 4 12 5 13 14 14
REMARK SMILES IDX 6 15 13 16 15 18 16 19 20 20 17 21 19 22 18 23 21 24 23 25
REMARK SMILES IDX 22 26 7 27 8 28 12 29 9 30 11 31 10 32
REMARK H PARENT 26 9 29 10 13 17
ROOT
ATOM      1  C   UNL     1      50.871  52.283  21.796  1.00  0.00    +0.106 C 
ATOM      2  N   UNL     1      50.784  53.021  20.532  1.00  0.00    -0.291 NA
ENDROOT
BRANCH   2   3
ATOM      3  C   UNL     1      51.983  53.831  20.293  1.00  0.00    +0.213 C 
BRANCH   3   4
ATOM      4  C   UNL     1      51.940  55.294  20.680  1.00  0.00    +0.266 A 
ATOM      5  N   UNL     1      51.970  56.356  19.855  1.00  0.00    -0.247 N 
ATOM      6  N   UNL     1      51.890  55.806  21.921  1.00  0.00    -0.247 N 
ATOM      7  C   UNL     1      51.943  57.533  20.569  1.00  0.00    +0.240 A 
ATOM      8  C   UNL     1      51.890  57.183  21.888  1.00  0.00    +0.240 A 
ATOM      9  H   UNL     1      52.009  56.285  18.841  1.00  0.00    +0.311 HD
ATOM     10  H   UNL     1      51.863  55.238  22.766  1.00  0.00    +0.311 HD
ENDBRANCH   3   4
ENDBRANCH   2   3
BRANCH   2  11
ATOM     11  C   UNL     1      50.480  52.128  19.402  1.00  0.00    +0.119 C 
BRANCH  11  12
ATOM     12  C   UNL     1      49.628  52.730  18.340  1.00  0.00    -0.015 C 
ATOM     13  C   UNL     1      49.232  53.991  18.146  1.00  0.00    +0.108 C 
ATOM     14  C   UNL     1      49.095  51.913  17.191  1.00  0.00    +0.134 C 
ATOM     15  N   UNL     1      48.485  54.133  17.006  1.00  0.00    -0.283 N 
ATOM     16  N   UNL     1      48.325  52.875  16.355  1.00  0.00    -0.218 NA
ATOM     17  H   UNL     1      47.335  52.626  16.395  1.00  0.00    +0.149 HD
BRANCH  14  18
ATOM     18  C   UNL     1      48.253  50.718  17.607  1.00  0.00    -0.021 A 
ATOM     19  C   UNL     1      48.840  49.679  18.369  1.00  0.00    +0.010 A 
ATOM     20  C   UNL     1      46.900  50.610  17.228  1.00  0.00    +0.056 A 
ATOM     21  C   UNL     1      48.095  48.564  18.768  1.00  0.00    +0.051 A 
ATOM     22  C   UNL     1      46.192  49.500  17.637  1.00  0.00    +0.166 A 
ATOM     23  C   UNL     1      46.773  48.506  18.387  1.00  0.00    +0.165 A 
ATOM     24  O   UNL     1      44.884  49.248  17.367  1.00  0.00    -0.454 OA
ATOM     25  O   UNL     1      45.904  47.504  18.680  1.00  0.00    -0.454 OA
ATOM     26  C   UNL     1      44.728  47.945  17.970  1.00  0.00    +0.468 C 
ENDBRANCH  14  18
BRANCH  15  27
ATOM     27  C   UNL     1      47.912  55.312  16.461  1.00  0.00    +0.057 A 
ATOM     28  C   UNL     1      48.156  56.572  17.039  1.00  0.00    +0.028 A 
ATOM     29  C   UNL     1      47.081  55.281  15.327  1.00  0.00    +0.028 A 
ATOM     30  C   UNL     1      47.600  57.744  16.512  1.00  0.00    +0.002 A 
ATOM     31  C   UNL     1      46.525  56.450  14.795  1.00  0.00    +0.002 A 
ATOM     32  C   UNL     1      46.786  57.681  15.387  1.00  0.00    +0.000 A 
ENDBRANCH  15  27
ENDBRANCH  11  12
ENDBRANCH   2  11
TORSDOF 6
ENDMDL
MODEL 4
REMARK VINA RESULT:    -8.762      4.647      7.393
REMARK INTER + INTRA:         -12.679
REMARK INTER:                 -11.492
REMARK INTRA:                  -1.187
REMARK UNBOUND:                -0.844
REMARK SMILES CN(CC1=CN(c2ccccc2)N[C@@H]1c1ccc2c(c1)OCO2)Cc1[nH]cc[nH+]1
REMARK SMILES IDX 1 1 2 2 24 3 25 4 26 5 29 6 27 7 28 8 3 11 4 12 5 13 14 14
REMARK SMILES IDX 6 15 13 16 15 18 16 19 20 20 17 21 19 22 18 23 21 24 23 25
REMARK SMILES IDX 22 26 7 27 8 28 12 29 9 30 11 31 10 32
REMARK H PARENT 26 9 29 10 13 17
ROOT
ATOM      1  C   UNL     1      52.632  53.052  19.067  1.00  0.00    +0.106 C 
ATOM      2  N   UNL     1      51.391  52.558  18.463  1.00  0.00    -0.291 NA
ENDROOT
BRANCH   2   3
ATOM      3  C   UNL     1      51.464  51.121  18.173  1.00  0.00    +0.213 C 
BRANCH   3   4
ATOM      4  C   UNL     1      51.882  50.699  16.781  1.00  0.00    +0.266 A 
ATOM      5  N   UNL     1      51.085  50.270  15.787  1.00  0.00    -0.247 N 
ATOM      6  N   UNL     1      53.130  50.647  16.287  1.00  0.00    -0.247 N 
ATOM      7  C   UNL     1      51.823  49.945  14.670  1.00  0.00    +0.240 A 
ATOM      8  C   UNL     1      53.129  50.188  14.988  1.00  0.00    +0.240 A 
ATOM      9  H   UNL     1      50.072  50.198  15.862  1.00  0.00    +0.311 HD
ATOM     10  H   UNL     1      53.959  50.910  16.817  1.00  0.00    +0.311 HD
ENDBRANCH   3   4
ENDBRANCH   2   3
BRANCH   2  11
ATOM     11  C   UNL     1      50.216  52.904  19.277  1.00  0.00    +0.119 C 
BRANCH  11  12
ATOM     12  C   UNL     1      49.528  54.164  18.881  1.00  0.00    -0.015 C 
ATOM     13  C   UNL     1      48.990  54.538  17.716  1.00  0.00    +0.108 C 
ATOM     14  C   UNL     1      49.271  55.273  19.868  1.00  0.00    +0.134 C 
ATOM     15  N   UNL     1      48.404  55.775  17.787  1.00  0.00    -0.283 N 
ATOM     16  N   UNL     1      48.554  56.324  19.093  1.00  0.00    -0.218 NA
ATOM     17  H   UNL     1      49.156  57.146  19.019  1.00  0.00    +0.149 HD
BRANCH  14  18
ATOM     18  C   UNL     1      50.522  55.816  20.542  1.00  0.00    -0.021 A 
ATOM     19  C   UNL     1      50.678  55.676  21.942  1.00  0.00    +0.010 A 
ATOM     20  C   UNL     1      51.521  56.480  19.803  1.00  0.00    +0.056 A 
ATOM     21  C   UNL     1      51.815  56.164  22.596  1.00  0.00    +0.051 A 
ATOM     22  C   UNL     1      52.629  56.949  20.476  1.00  0.00    +0.166 A 
ATOM     23  C   UNL     1      52.772  56.794  21.833  1.00  0.00    +0.165 A 
ATOM     24  O   UNL     1      53.683  57.599  19.914  1.00  0.00    -0.454 OA
ATOM     25  O   UNL     1      53.932  57.330  22.296  1.00  0.00    -0.454 OA
ATOM     26  C   UNL     1      54.471  57.902  21.086  1.00  0.00    +0.468 C 
ENDBRANCH  14  18
BRANCH  15  27
ATOM     27  C   UNL     1      47.718  56.492  16.771  1.00  0.00    +0.057 A 
ATOM     28  C   UNL     1      47.513  55.928  15.498  1.00  0.00    +0.028 A 
ATOM     29  C   UNL     1      47.214  57.787  16.984  1.00  0.00    +0.028 A 
ATOM     30  C   UNL     1      46.836  56.621  14.487  1.00  0.00    +0.002 A 
ATOM     31  C   UNL     1      46.535  58.482  15.977  1.00  0.00    +0.002 A 
ATOM     32  C   UNL     1      46.345  57.899  14.729  1.00  0.00    +0.000 A 
ENDBRANCH  15  27
ENDBRANCH  11  12
ENDBRANCH   2  11
TORSDOF 6
ENDMDL
MODEL 5
REMARK VINA RESULT:    -8.403      4.731      7.908
REMARK INTER + INTRA:         -12.194
REMARK INTER:                 -11.095
REMARK INTRA:                  -1.099
REMARK UNBOUND:                -0.844
REMARK SMILES CN(CC1=CN(c2ccccc2)N[C@@H]1c1ccc2c(c1)OCO2)Cc1[nH]cc[nH+]1
REMARK SMILES IDX 1 1 2 2 24 3 25 4 26 5 29 6 27 7 28 8 3 11 4 12 5 13 14 14
REMARK SMILES IDX 6 15 13 16 15 18 16 19 20 20 17 21 19 22 18 23 21 24 23 25
REMARK SMILES IDX 22 26 7 27 8 28 12 29 9 30 11 31 10 32
REMARK H PARENT 26 9 29 10 13 17
ROOT
ATOM      1  C   UNL     1      50.924  54.968  18.788  1.00  0.00    +0.106 C 
ATOM      2  N   UNL     1      49.524  54.697  18.449  1.00  0.00    -0.291 NA
ENDROOT
BRANCH   2   3
ATOM      3  C   UNL     1      49.334  53.315  17.993  1.00  0.00    +0.213 C 
BRANCH   3   4
ATOM      4  C   UNL     1      50.365  52.285  18.403  1.00  0.00    +0.266 A 
ATOM      5  N   UNL     1      50.504  51.707  19.609  1.00  0.00    -0.247 N 
ATOM      6  N   UNL     1      51.350  51.775  17.645  1.00  0.00    -0.247 N 
ATOM      7  C   UNL     1      51.573  50.838  19.617  1.00  0.00    +0.240 A 
ATOM      8  C   UNL     1      52.112  50.880  18.363  1.00  0.00    +0.240 A 
ATOM      9  H   UNL     1      49.896  51.896  20.402  1.00  0.00    +0.311 HD
ATOM     10  H   UNL     1      51.504  52.030  16.671  1.00  0.00    +0.311 HD
ENDBRANCH   3   4
ENDBRANCH   2   3
BRANCH   2  11
ATOM     11  C   UNL     1      48.620  55.048  19.556  1.00  0.00    +0.119 C 
BRANCH  11  12
ATOM     12  C   UNL     1      48.333  56.503  19.692  1.00  0.00    -0.015 C 
ATOM     13  C   UNL     1      47.710  57.354  18.870  1.00  0.00    +0.108 C 
ATOM     14  C   UNL     1      48.696  57.271  20.937  1.00  0.00    +0.134 C 
ATOM     15  N   UNL     1      47.612  58.613  19.401  1.00  0.00    -0.283 N 
ATOM     16  N   UNL     1      48.227  58.662  20.686  1.00  0.00    -0.218 NA
ATOM     17  H   UNL     1      49.040  59.276  20.619  1.00  0.00    +0.149 HD
BRANCH  14  18
ATOM     18  C   UNL     1      50.173  57.224  21.296  1.00  0.00    -0.021 A 
ATOM     19  C   UNL     1      50.621  56.326  22.294  1.00  0.00    +0.010 A 
ATOM     20  C   UNL     1      51.105  58.076  20.670  1.00  0.00    +0.056 A 
ATOM     21  C   UNL     1      51.973  56.256  22.651  1.00  0.00    +0.051 A 
ATOM     22  C   UNL     1      52.429  57.983  21.043  1.00  0.00    +0.166 A 
ATOM     23  C   UNL     1      52.851  57.098  22.005  1.00  0.00    +0.165 A 
ATOM     24  O   UNL     1      53.451  58.720  20.533  1.00  0.00    -0.454 OA
ATOM     25  O   UNL     1      54.190  57.169  22.222  1.00  0.00    -0.454 OA
ATOM     26  C   UNL     1      54.554  58.250  21.338  1.00  0.00    +0.468 C 
ENDBRANCH  14  18
BRANCH  15  27
ATOM     27  C   UNL     1      47.004  59.767  18.841  1.00  0.00    +0.057 A 
ATOM     28  C   UNL     1      47.013  60.996  19.527  1.00  0.00    +0.028 A 
ATOM     29  C   UNL     1      46.370  59.742  17.587  1.00  0.00    +0.028 A 
ATOM     30  C   UNL     1      46.421  62.144  18.988  1.00  0.00    +0.002 A 
ATOM     31  C   UNL     1      45.779  60.888  17.042  1.00  0.00    +0.002 A 
ATOM     32  C   UNL     1      45.805  62.089  17.742  1.00  0.00    +0.000 A 
ENDBRANCH  15  27
ENDBRANCH  11  12
ENDBRANCH   2  11
TORSDOF 6
ENDMDL
