MODEL 1
REMARK VINA RESULT:    -9.848      0.000      0.000
REMARK INTER + INTRA:         -15.101
REMARK INTER:                 -13.878
REMARK INTRA:                  -1.223
REMARK UNBOUND:                -1.223
REMARK SMILES CCn1c(=O)c(=O)[nH]c2cc(C3=[NH+][C@@H]([C@H](NS(=O)(=O)c4ccc(C)cc4)C(C)C)ON3)ccc21
REMARK SMILES IDX 15 1 14 2 12 3 13 4 31 5 30 6 11 9 3 10 34 11 4 12 33 13
REMARK SMILES IDX 9 14 6 15 5 16 32 17 10 18 8 19 7 20 2 22 1 23 27 24 28 25
REMARK SMILES IDX 29 26 16 27 17 29 18 30 19 31 20 32 21 33 26 34 22 35 25 36
REMARK SMILES IDX 23 37 24 38
REMARK H PARENT 13 7 31 8 8 21 16 28
ROOT
ATOM      1  C   UNL     1      51.217  51.613  20.054  1.00  0.00    +0.150 C 
ENDROOT
BRANCH   1   2
ATOM      2  C   UNL     1      51.175  52.860  20.974  1.00  0.00    +0.375 C 
ATOM      3  C   UNL     1      50.418  54.864  20.271  1.00  0.00    +0.307 C 
ATOM      4  N   UNL     1      50.003  53.679  20.643  1.00  0.00    -0.240 N 
ATOM      5  N   UNL     1      51.727  54.944  20.312  1.00  0.00    -0.125 N 
ATOM      6  O   UNL     1      52.298  53.738  20.732  1.00  0.00    -0.146 OA
ATOM      7  H   UNL     1      49.032  53.401  20.614  1.00  0.00    +0.308 HD
ATOM      8  H   UNL     1      52.307  55.751  20.108  1.00  0.00    +0.350 HD
BRANCH   3   9
ATOM      9  C   UNL     1      49.537  55.949  19.855  1.00  0.00    +0.068 A 
ATOM     10  N   UNL     1      46.922  59.094  18.629  1.00  0.00    -0.302 N 
ATOM     11  C   UNL     1      47.804  58.062  19.060  1.00  0.00    +0.068 A 
ATOM     12  C   UNL     1      46.536  59.217  17.284  1.00  0.00    +0.316 C 
ATOM     13  C   UNL     1      48.243  57.946  20.384  1.00  0.00    +0.029 A 
ATOM     14  C   UNL     1      48.257  57.106  18.138  1.00  0.00    +0.066 A 
ATOM     15  C   UNL     1      47.031  58.138  16.305  1.00  0.00    +0.314 C 
ATOM     16  O   UNL     1      45.830  60.124  16.856  1.00  0.00    -0.263 OA
ATOM     17  C   UNL     1      49.093  56.903  20.778  1.00  0.00    +0.019 A 
ATOM     18  C   UNL     1      49.112  56.065  18.526  1.00  0.00    +0.045 A 
ATOM     19  N   UNL     1      47.857  57.165  16.808  1.00  0.00    -0.316 N 
ATOM     20  O   UNL     1      46.708  58.136  15.126  1.00  0.00    -0.263 OA
ATOM     21  H   UNL     1      48.159  56.485  16.123  1.00  0.00    +0.170 HD
BRANCH  10  22
ATOM     22  C   UNL     1      46.435  60.122  19.549  1.00  0.00    +0.123 C 
ATOM     23  C   UNL     1      47.147  61.453  19.354  1.00  0.00    +0.028 C 
ENDBRANCH  10  22
ENDBRANCH   3   9
ENDBRANCH   1   2
BRANCH   1  24
ATOM     24  C   UNL     1      51.870  50.351  20.672  1.00  0.00    +0.008 C 
ATOM     25  C   UNL     1      52.951  49.717  19.791  1.00  0.00    +0.009 C 
ATOM     26  C   UNL     1      50.829  49.292  21.049  1.00  0.00    +0.009 C 
ENDBRANCH   1  24
BRANCH   1  27
ATOM     27  N   UNL     1      49.831  51.284  19.596  1.00  0.00    -0.201 NA
ATOM     28  H   UNL     1      49.325  50.520  20.054  1.00  0.00    +0.142 HD
BRANCH  27  29
ATOM     29  S   UNL     1      49.535  51.237  17.928  1.00  0.00    +0.241 S 
ATOM     30  O   UNL     1      50.625  50.475  17.371  1.00  0.00    -0.207 OA
ATOM     31  O   UNL     1      49.208  52.578  17.508  1.00  0.00    -0.207 OA
BRANCH  29  32
ATOM     32  C   UNL     1      48.074  50.234  17.879  1.00  0.00    +0.082 A 
ATOM     33  C   UNL     1      46.948  50.698  17.194  1.00  0.00    +0.022 A 
ATOM     34  C   UNL     1      48.046  49.011  18.554  1.00  0.00    +0.022 A 
ATOM     35  C   UNL     1      45.789  49.921  17.174  1.00  0.00    +0.005 A 
ATOM     36  C   UNL     1      46.881  48.242  18.531  1.00  0.00    +0.005 A 
ATOM     37  C   UNL     1      45.749  48.686  17.836  1.00  0.00    -0.051 A 
ATOM     38  C   UNL     1      44.468  47.902  17.894  1.00  0.00    +0.044 C 
ENDBRANCH  29  32
ENDBRANCH  27  29
ENDBRANCH   1  27
TORSDOF 7
ENDMDL
MODEL 2
REMARK VINA RESULT:    -8.507      4.708      9.865
REMARK INTER + INTRA:         -13.210
REMARK INTER:                 -11.011
REMARK INTRA:                  -2.200
REMARK UNBOUND:                -1.223
REMARK SMILES CCn1c(=O)c(=O)[nH]c2cc(C3=[NH+][C@@H]([C@H](NS(=O)(=O)c4ccc(C)cc4)C(C)C)ON3)ccc21
REMARK SMILES IDX 15 1 14 2 12 3 13 4 31 5 30 6 11 9 3 10 34 11 4 12 33 13
REMARK SMILES IDX 9 14 6 15 5 16 32 17 10 18 8 19 7 20 2 22 1 23 27 24 28 25
REMARK SMILES IDX 29 26 16 27 17 29 18 30 19 31 20 32 21 33 26 34 22 35 25 36
REMARK SMILES IDX 23 37 24 38
REMARK H PARENT 13 7 31 8 8 21 16 28
ROOT
ATOM      1  C   UNL     1      45.072  64.077  17.219  1.00  0.00    +0.150 C 
ENDROOT
BRANCH   1   2
ATOM      2  C   UNL     1      46.048  63.700  18.362  1.00  0.00    +0.375 C 
ATOM      3  C   UNL     1      46.479  61.562  18.936  1.00  0.00    +0.307 C 
ATOM      4  N   UNL     1      46.752  62.458  18.021  1.00  0.00    -0.240 N 
ATOM      5  N   UNL     1      45.676  62.049  19.854  1.00  0.00    -0.125 N 
ATOM      6  O   UNL     1      45.341  63.380  19.582  1.00  0.00    -0.146 OA
ATOM      7  H   UNL     1      47.300  62.253  17.197  1.00  0.00    +0.308 HD
ATOM      8  H   UNL     1      45.334  61.586  20.688  1.00  0.00    +0.350 HD
BRANCH   3   9
ATOM      9  C   UNL     1      46.991  60.198  18.929  1.00  0.00    +0.068 A 
ATOM     10  N   UNL     1      48.532  56.216  18.880  1.00  0.00    -0.302 N 
ATOM     11  C   UNL     1      48.011  57.540  18.924  1.00  0.00    +0.068 A 
ATOM     12  C   UNL     1      48.542  55.469  17.690  1.00  0.00    +0.316 C 
ATOM     13  C   UNL     1      47.945  58.288  20.107  1.00  0.00    +0.029 A 
ATOM     14  C   UNL     1      47.548  58.144  17.746  1.00  0.00    +0.066 A 
ATOM     15  C   UNL     1      48.049  56.170  16.413  1.00  0.00    +0.314 C 
ATOM     16  O   UNL     1      48.922  54.305  17.617  1.00  0.00    -0.263 OA
ATOM     17  C   UNL     1      47.447  59.598  20.109  1.00  0.00    +0.019 A 
ATOM     18  C   UNL     1      47.043  59.451  17.744  1.00  0.00    +0.045 A 
ATOM     19  N   UNL     1      47.587  57.455  16.539  1.00  0.00    -0.316 N 
ATOM     20  O   UNL     1      48.065  55.615  15.323  1.00  0.00    -0.263 OA
ATOM     21  H   UNL     1      47.270  57.867  15.671  1.00  0.00    +0.170 HD
BRANCH  10  22
ATOM     22  C   UNL     1      49.013  55.538  20.084  1.00  0.00    +0.123 C 
ATOM     23  C   UNL     1      50.491  55.796  20.339  1.00  0.00    +0.028 C 
ENDBRANCH  10  22
ENDBRANCH   3   9
ENDBRANCH   1   2
BRANCH   1  24
ATOM     24  C   UNL     1      45.502  65.285  16.348  1.00  0.00    +0.008 C 
ATOM     25  C   UNL     1      45.724  64.938  14.873  1.00  0.00    +0.009 C 
ATOM     26  C   UNL     1      46.749  65.980  16.905  1.00  0.00    +0.009 C 
ENDBRANCH   1  24
BRANCH   1  27
ATOM     27  N   UNL     1      44.847  62.886  16.342  1.00  0.00    -0.201 NA
ATOM     28  H   UNL     1      45.127  62.933  15.358  1.00  0.00    +0.142 HD
BRANCH  27  29
ATOM     29  S   UNL     1      43.364  62.075  16.468  1.00  0.00    +0.241 S 
ATOM     30  O   UNL     1      42.472  62.773  15.575  1.00  0.00    -0.207 OA
ATOM     31  O   UNL     1      43.091  61.887  17.873  1.00  0.00    -0.207 OA
BRANCH  29  32
ATOM     32  C   UNL     1      43.775  60.515  15.735  1.00  0.00    +0.082 A 
ATOM     33  C   UNL     1      42.979  59.399  16.009  1.00  0.00    +0.022 A 
ATOM     34  C   UNL     1      44.908  60.403  14.924  1.00  0.00    +0.022 A 
ATOM     35  C   UNL     1      43.315  58.164  15.453  1.00  0.00    +0.005 A 
ATOM     36  C   UNL     1      45.237  59.163  14.375  1.00  0.00    +0.005 A 
ATOM     37  C   UNL     1      44.441  58.038  14.627  1.00  0.00    -0.051 A 
ATOM     38  C   UNL     1      44.853  56.687  14.113  1.00  0.00    +0.044 C 
ENDBRANCH  29  32
ENDBRANCH  27  29
ENDBRANCH   1  27
TORSDOF 7
ENDMDL
MODEL 3
REMARK VINA RESULT:    -8.498      3.483      8.977
REMARK INTER + INTRA:         -13.199
REMARK INTER:                 -12.532
REMARK INTRA:                  -0.667
REMARK UNBOUND:                -1.223
REMARK SMILES CCn1c(=O)c(=O)[nH]c2cc(C3=[NH+][C@@H]([C@H](NS(=O)(=O)c4ccc(C)cc4)C(C)C)ON3)ccc21
REMARK SMILES IDX 15 1 14 2 12 3 13 4 31 5 30 6 11 9 3 10 34 11 4 12 33 13
REMARK SMILES IDX 9 14 6 15 5 16 32 17 10 18 8 19 7 20 2 22 1 23 27 24 28 25
REMARK SMILES IDX 29 26 16 27 17 29 18 30 19 31 20 32 21 33 26 34 22 35 25 36
REMARK SMILES IDX 23 37 24 38
REMARK H PARENT 13 7 31 8 8 21 16 28
ROOT
ATOM      1  C   UNL     1      49.858  54.472  19.257  1.00  0.00    +0.150 C 
ENDROOT
BRANCH   1   2
ATOM      2  C   UNL     1      50.127  53.856  17.861  1.00  0.00    +0.375 C 
ATOM      3  C   UNL     1      49.334  51.836  17.251  1.00  0.00    +0.307 C 
ATOM      4  N   UNL     1      48.960  53.078  17.431  1.00  0.00    -0.240 N 
ATOM      5  N   UNL     1      50.612  51.682  17.507  1.00  0.00    -0.125 N 
ATOM      6  O   UNL     1      51.199  52.887  17.905  1.00  0.00    -0.146 OA
ATOM      7  H   UNL     1      47.999  53.381  17.348  1.00  0.00    +0.308 HD
ATOM      8  H   UNL     1      51.166  50.838  17.418  1.00  0.00    +0.350 HD
BRANCH   3   9
ATOM      9  C   UNL     1      48.442  50.762  16.831  1.00  0.00    +0.068 A 
ATOM     10  N   UNL     1      45.789  47.645  15.614  1.00  0.00    -0.302 N 
ATOM     11  C   UNL     1      46.690  48.680  15.996  1.00  0.00    +0.068 A 
ATOM     12  C   UNL     1      45.037  46.936  16.565  1.00  0.00    +0.316 C 
ATOM     13  C   UNL     1      47.486  49.369  15.073  1.00  0.00    +0.029 A 
ATOM     14  C   UNL     1      46.795  49.045  17.346  1.00  0.00    +0.066 A 
ATOM     15  C   UNL     1      45.158  47.379  18.033  1.00  0.00    +0.314 C 
ATOM     16  O   UNL     1      44.297  45.997  16.290  1.00  0.00    -0.263 OA
ATOM     17  C   UNL     1      48.346  50.397  15.483  1.00  0.00    +0.019 A 
ATOM     18  C   UNL     1      47.657  50.069  17.762  1.00  0.00    +0.045 A 
ATOM     19  N   UNL     1      46.030  48.400  18.312  1.00  0.00    -0.316 N 
ATOM     20  O   UNL     1      44.507  46.852  18.924  1.00  0.00    -0.263 OA
ATOM     21  H   UNL     1      46.076  48.648  19.292  1.00  0.00    +0.170 HD
BRANCH  10  22
ATOM     22  C   UNL     1      45.656  47.218  14.221  1.00  0.00    +0.123 C 
ATOM     23  C   UNL     1      44.562  47.980  13.487  1.00  0.00    +0.028 C 
ENDBRANCH  10  22
ENDBRANCH   3   9
ENDBRANCH   1   2
BRANCH   1  24
ATOM     24  C   UNL     1      48.623  55.406  19.347  1.00  0.00    +0.008 C 
ATOM     25  C   UNL     1      48.427  56.294  18.115  1.00  0.00    +0.009 C 
ATOM     26  C   UNL     1      48.652  56.276  20.608  1.00  0.00    +0.009 C 
ENDBRANCH   1  24
BRANCH   1  27
ATOM     27  N   UNL     1      49.729  53.377  20.270  1.00  0.00    -0.201 NA
ATOM     28  H   UNL     1      48.860  53.296  20.806  1.00  0.00    +0.142 HD
BRANCH  27  29
ATOM     29  S   UNL     1      51.051  53.076  21.287  1.00  0.00    +0.241 S 
ATOM     30  O   UNL     1      51.948  52.257  20.510  1.00  0.00    -0.207 OA
ATOM     31  O   UNL     1      50.527  52.680  22.572  1.00  0.00    -0.207 OA
BRANCH  29  32
ATOM     32  C   UNL     1      51.750  54.700  21.412  1.00  0.00    +0.082 A 
ATOM     33  C   UNL     1      51.560  55.438  22.583  1.00  0.00    +0.022 A 
ATOM     34  C   UNL     1      52.450  55.243  20.331  1.00  0.00    +0.022 A 
ATOM     35  C   UNL     1      52.088  56.727  22.675  1.00  0.00    +0.005 A 
ATOM     36  C   UNL     1      52.972  56.533  20.430  1.00  0.00    +0.005 A 
ATOM     37  C   UNL     1      52.803  57.281  21.603  1.00  0.00    -0.051 A 
ATOM     38  C   UNL     1      53.283  58.703  21.671  1.00  0.00    +0.044 C 
ENDBRANCH  29  32
ENDBRANCH  27  29
ENDBRANCH   1  27
TORSDOF 7
ENDMDL
MODEL 4
REMARK VINA RESULT:    -8.443      3.663      5.668
REMARK INTER + INTRA:         -13.121
REMARK INTER:                 -11.874
REMARK INTRA:                  -1.247
REMARK UNBOUND:                -1.223
REMARK SMILES CCn1c(=O)c(=O)[nH]c2cc(C3=[NH+][C@@H]([C@H](NS(=O)(=O)c4ccc(C)cc4)C(C)C)ON3)ccc21
REMARK SMILES IDX 15 1 14 2 12 3 13 4 31 5 30 6 11 9 3 10 34 11 4 12 33 13
REMARK SMILES IDX 9 14 6 15 5 16 32 17 10 18 8 19 7 20 2 22 1 23 27 24 28 25
REMARK SMILES IDX 29 26 16 27 17 29 18 30 19 31 20 32 21 33 26 34 22 35 25 36
REMARK SMILES IDX 23 37 24 38
REMARK H PARENT 13 7 31 8 8 21 16 28
ROOT
ATOM      1  C   UNL     1      49.189  55.842  20.215  1.00  0.00    +0.150 C 
ENDROOT
BRANCH   1   2
ATOM      2  C   UNL     1      48.226  56.822  20.931  1.00  0.00    +0.375 C 
ATOM      3  C   UNL     1      47.702  58.846  20.088  1.00  0.00    +0.307 C 
ATOM      4  N   UNL     1      47.451  57.570  19.935  1.00  0.00    -0.240 N 
ATOM      5  N   UNL     1      48.552  59.049  21.067  1.00  0.00    -0.125 N 
ATOM      6  O   UNL     1      48.948  57.843  21.655  1.00  0.00    -0.146 OA
ATOM      7  H   UNL     1      46.872  57.209  19.189  1.00  0.00    +0.308 HD
ATOM      8  H   UNL     1      48.893  59.936  21.420  1.00  0.00    +0.350 HD
BRANCH   3   9
ATOM      9  C   UNL     1      47.121  59.902  19.268  1.00  0.00    +0.068 A 
ATOM     10  N   UNL     1      45.373  62.974  16.872  1.00  0.00    -0.302 N 
ATOM     11  C   UNL     1      45.973  61.969  17.684  1.00  0.00    +0.068 A 
ATOM     12  C   UNL     1      44.872  62.682  15.592  1.00  0.00    +0.316 C 
ATOM     13  C   UNL     1      46.523  62.243  18.942  1.00  0.00    +0.029 A 
ATOM     14  C   UNL     1      46.017  60.644  17.229  1.00  0.00    +0.066 A 
ATOM     15  C   UNL     1      44.915  61.214  15.135  1.00  0.00    +0.314 C 
ATOM     16  O   UNL     1      44.405  63.525  14.833  1.00  0.00    -0.263 OA
ATOM     17  C   UNL     1      47.085  61.225  19.724  1.00  0.00    +0.019 A 
ATOM     18  C   UNL     1      46.583  59.623  18.005  1.00  0.00    +0.045 A 
ATOM     19  N   UNL     1      45.487  60.306  15.988  1.00  0.00    -0.316 N 
ATOM     20  O   UNL     1      44.459  60.858  14.057  1.00  0.00    -0.263 OA
ATOM     21  H   UNL     1      45.495  59.357  15.638  1.00  0.00    +0.170 HD
BRANCH  10  22
ATOM     22  C   UNL     1      45.316  64.373  17.296  1.00  0.00    +0.123 C 
ATOM     23  C   UNL     1      46.567  65.145  16.902  1.00  0.00    +0.028 C 
ENDBRANCH  10  22
ENDBRANCH   3   9
ENDBRANCH   1   2
BRANCH   1  24
ATOM     24  C   UNL     1      48.641  55.200  18.914  1.00  0.00    +0.008 C 
ATOM     25  C   UNL     1      49.037  53.731  18.734  1.00  0.00    +0.009 C 
ATOM     26  C   UNL     1      49.043  55.996  17.668  1.00  0.00    +0.009 C 
ENDBRANCH   1  24
BRANCH   1  27
ATOM     27  N   UNL     1      50.481  56.538  19.921  1.00  0.00    -0.201 NA
ATOM     28  H   UNL     1      50.778  56.644  18.947  1.00  0.00    +0.142 HD
BRANCH  27  29
ATOM     29  S   UNL     1      51.824  56.159  20.883  1.00  0.00    +0.241 S 
ATOM     30  O   UNL     1      51.373  56.312  22.244  1.00  0.00    -0.207 OA
ATOM     31  O   UNL     1      52.959  56.864  20.339  1.00  0.00    -0.207 OA
BRANCH  29  32
ATOM     32  C   UNL     1      51.994  54.426  20.547  1.00  0.00    +0.082 A 
ATOM     33  C   UNL     1      51.661  53.501  21.540  1.00  0.00    +0.022 A 
ATOM     34  C   UNL     1      52.493  54.001  19.313  1.00  0.00    +0.022 A 
ATOM     35  C   UNL     1      51.817  52.137  21.287  1.00  0.00    +0.005 A 
ATOM     36  C   UNL     1      52.649  52.636  19.070  1.00  0.00    +0.005 A 
ATOM     37  C   UNL     1      52.305  51.695  20.050  1.00  0.00    -0.051 A 
ATOM     38  C   UNL     1      52.564  50.232  19.820  1.00  0.00    +0.044 C 
ENDBRANCH  29  32
ENDBRANCH  27  29
ENDBRANCH   1  27
TORSDOF 7
ENDMDL
MODEL 5
REMARK VINA RESULT:    -8.200      3.922      9.738
REMARK INTER + INTRA:         -12.779
REMARK INTER:                 -10.889
REMARK INTRA:                  -1.890
REMARK UNBOUND:                -1.223
REMARK SMILES CCn1c(=O)c(=O)[nH]c2cc(C3=[NH+][C@@H]([C@H](NS(=O)(=O)c4ccc(C)cc4)C(C)C)ON3)ccc21
REMARK SMILES IDX 15 1 14 2 12 3 13 4 31 5 30 6 11 9 3 10 34 11 4 12 33 13
REMARK SMILES IDX 9 14 6 15 5 16 32 17 10 18 8 19 7 20 2 22 1 23 27 24 28 25
REMARK SMILES IDX 29 26 16 27 17 29 18 30 19 31 20 32 21 33 26 34 22 35 25 36
REMARK SMILES IDX 23 37 24 38
REMARK H PARENT 13 7 31 8 8 21 16 28
ROOT
ATOM      1  C   UNL     1      45.475  63.329  16.947  1.00  0.00    +0.150 C 
ENDROOT
BRANCH   1   2
ATOM      2  C   UNL     1      46.495  62.905  18.033  1.00  0.00    +0.375 C 
ATOM      3  C   UNL     1      46.922  60.746  18.523  1.00  0.00    +0.307 C 
ATOM      4  N   UNL     1      47.166  61.665  17.624  1.00  0.00    -0.240 N 
ATOM      5  N   UNL     1      46.168  61.215  19.490  1.00  0.00    -0.125 N 
ATOM      6  O   UNL     1      45.839  62.557  19.273  1.00  0.00    -0.146 OA
ATOM      7  H   UNL     1      47.673  61.479  16.770  1.00  0.00    +0.308 HD
ATOM      8  H   UNL     1      45.857  60.731  20.325  1.00  0.00    +0.350 HD
BRANCH   3   9
ATOM      9  C   UNL     1      47.415  59.376  18.452  1.00  0.00    +0.068 A 
ATOM     10  N   UNL     1      48.829  55.350  18.282  1.00  0.00    -0.302 N 
ATOM     11  C   UNL     1      48.357  56.694  18.309  1.00  0.00    +0.068 A 
ATOM     12  C   UNL     1      49.613  54.825  19.322  1.00  0.00    +0.316 C 
ATOM     13  C   UNL     1      47.615  57.256  17.264  1.00  0.00    +0.029 A 
ATOM     14  C   UNL     1      48.627  57.502  19.423  1.00  0.00    +0.066 A 
ATOM     15  C   UNL     1      49.870  55.730  20.539  1.00  0.00    +0.314 C 
ATOM     16  O   UNL     1      50.093  53.696  19.313  1.00  0.00    -0.263 OA
ATOM     17  C   UNL     1      47.147  58.576  17.335  1.00  0.00    +0.019 A 
ATOM     18  C   UNL     1      48.167  58.824  19.497  1.00  0.00    +0.045 A 
ATOM     19  N   UNL     1      49.359  57.002  20.496  1.00  0.00    -0.316 N 
ATOM     20  O   UNL     1      50.501  55.343  21.512  1.00  0.00    -0.263 OA
ATOM     21  H   UNL     1      49.561  57.557  21.317  1.00  0.00    +0.170 HD
BRANCH  10  22
ATOM     22  C   UNL     1      48.585  54.474  17.136  1.00  0.00    +0.123 C 
ATOM     23  C   UNL     1      47.750  53.258  17.508  1.00  0.00    +0.028 C 
ENDBRANCH  10  22
ENDBRANCH   3   9
ENDBRANCH   1   2
BRANCH   1  24
ATOM     24  C   UNL     1      45.843  64.605  16.148  1.00  0.00    +0.008 C 
ATOM     25  C   UNL     1      46.727  65.588  16.922  1.00  0.00    +0.009 C 
ATOM     26  C   UNL     1      44.602  65.334  15.624  1.00  0.00    +0.009 C 
ENDBRANCH   1  24
BRANCH   1  27
ATOM     27  N   UNL     1      45.255  62.193  15.998  1.00  0.00    -0.201 NA
ATOM     28  H   UNL     1      45.508  62.312  15.013  1.00  0.00    +0.142 HD
BRANCH  27  29
ATOM     29  S   UNL     1      43.795  61.338  16.106  1.00  0.00    +0.241 S 
ATOM     30  O   UNL     1      42.871  62.056  15.263  1.00  0.00    -0.207 OA
ATOM     31  O   UNL     1      43.551  61.072  17.503  1.00  0.00    -0.207 OA
BRANCH  29  32
ATOM     32  C   UNL     1      44.234  59.827  15.289  1.00  0.00    +0.082 A 
ATOM     33  C   UNL     1      43.550  58.652  15.611  1.00  0.00    +0.022 A 
ATOM     34  C   UNL     1      45.280  59.815  14.362  1.00  0.00    +0.022 A 
ATOM     35  C   UNL     1      43.910  57.456  14.987  1.00  0.00    +0.005 A 
ATOM     36  C   UNL     1      45.635  58.615  13.745  1.00  0.00    +0.005 A 
ATOM     37  C   UNL     1      44.949  57.430  14.046  1.00  0.00    -0.051 A 
ATOM     38  C   UNL     1      45.397  56.124  13.452  1.00  0.00    +0.044 C 
ENDBRANCH  29  32
ENDBRANCH  27  29
ENDBRANCH   1  27
TORSDOF 7
ENDMDL
