MODEL 1
REMARK VINA RESULT:    -7.568      0.000      0.000
REMARK INTER + INTRA:         -11.300
REMARK INTER:                 -10.665
REMARK INTRA:                  -0.635
REMARK UNBOUND:                -0.635
REMARK SMILES COCCNC(=O)NNC(=O)/C=C/c1ccc(C(C)(C)C)cc1
REMARK SMILES IDX 8 1 6 2 7 3 5 4 9 7 10 8 11 9 12 11 13 12 14 13 17 14 16 15
REMARK SMILES IDX 22 16 15 17 23 18 18 19 19 20 20 21 21 22 4 23 3 24 2 25
REMARK SMILES IDX 1 26
REMARK H PARENT 8 5 5 6 9 10
ROOT
ATOM      1  N   UNL     1      45.972  63.112  19.158  1.00  0.00    -0.249 N 
ATOM      2  C   UNL     1      46.357  63.773  18.009  1.00  0.00    +0.333 C 
ATOM      3  O   UNL     1      47.426  63.561  17.445  1.00  0.00    -0.247 OA
ATOM      4  N   UNL     1      45.441  64.715  17.612  1.00  0.00    -0.334 N 
ATOM      5  H   UNL     1      44.978  62.995  19.340  1.00  0.00    +0.193 HD
ATOM      6  H   UNL     1      44.491  64.559  17.912  1.00  0.00    +0.165 HD
ENDROOT
BRANCH   1   7
ATOM      7  N   UNL     1      46.742  61.982  19.508  1.00  0.00    -0.263 N 
ATOM      8  C   UNL     1      46.258  60.753  19.117  1.00  0.00    +0.262 C 
ATOM      9  O   UNL     1      45.123  60.586  18.679  1.00  0.00    -0.268 OA
ATOM     10  H   UNL     1      47.740  62.159  19.611  1.00  0.00    +0.191 HD
BRANCH   8  11
ATOM     11  C   UNL     1      47.252  59.663  19.257  1.00  0.00    +0.073 C 
ATOM     12  C   UNL     1      47.195  58.842  20.316  1.00  0.00    +0.014 C 
BRANCH  12  13
ATOM     13  C   UNL     1      48.124  57.727  20.538  1.00  0.00    -0.025 A 
ATOM     14  C   UNL     1      50.006  55.632  20.979  1.00  0.00    -0.043 A 
ATOM     15  C   UNL     1      48.944  55.483  20.072  1.00  0.00    +0.005 A 
ATOM     16  C   UNL     1      50.106  56.865  21.649  1.00  0.00    +0.005 A 
ATOM     17  C   UNL     1      48.021  56.514  19.852  1.00  0.00    +0.008 A 
ATOM     18  C   UNL     1      49.185  57.897  21.429  1.00  0.00    +0.008 A 
BRANCH  14  19
ATOM     19  C   UNL     1      51.035  54.521  21.245  1.00  0.00    -0.013 C 
ATOM     20  C   UNL     1      52.186  54.623  20.221  1.00  0.00    +0.016 C 
ATOM     21  C   UNL     1      50.456  53.092  21.141  1.00  0.00    +0.016 C 
ATOM     22  C   UNL     1      51.610  54.676  22.671  1.00  0.00    +0.016 C 
ENDBRANCH  14  19
ENDBRANCH  12  13
ENDBRANCH   8  11
ENDBRANCH   1   7
BRANCH   4  23
ATOM     23  C   UNL     1      45.643  65.443  16.372  1.00  0.00    +0.146 C 
BRANCH  23  24
ATOM     24  C   UNL     1      45.211  64.637  15.146  1.00  0.00    +0.181 C 
BRANCH  24  25
ATOM     25  O   UNL     1      46.141  64.734  14.068  1.00  0.00    -0.383 OA
ATOM     26  C   UNL     1      45.525  64.976  12.810  1.00  0.00    +0.194 C 
ENDBRANCH  24  25
ENDBRANCH  23  24
ENDBRANCH   4  23
TORSDOF 7
ENDMDL
MODEL 2
REMARK VINA RESULT:    -7.416      7.429     10.598
REMARK INTER + INTRA:         -11.086
REMARK INTER:                 -10.413
REMARK INTRA:                  -0.672
REMARK UNBOUND:                -0.635
REMARK SMILES COCCNC(=O)NNC(=O)/C=C/c1ccc(C(C)(C)C)cc1
REMARK SMILES IDX 8 1 6 2 7 3 5 4 9 7 10 8 11 9 12 11 13 12 14 13 17 14 16 15
REMARK SMILES IDX 22 16 15 17 23 18 18 19 19 20 20 21 21 22 4 23 3 24 2 25
REMARK SMILES IDX 1 26
REMARK H PARENT 8 5 5 6 9 10
ROOT
ATOM      1  N   UNL     1      51.963  53.467  20.844  1.00  0.00    -0.249 N 
ATOM      2  C   UNL     1      51.320  54.677  21.010  1.00  0.00    +0.333 C 
ATOM      3  O   UNL     1      50.333  55.002  20.357  1.00  0.00    -0.247 OA
ATOM      4  N   UNL     1      51.937  55.479  21.937  1.00  0.00    -0.334 N 
ATOM      5  H   UNL     1      52.464  53.072  21.637  1.00  0.00    +0.193 HD
ATOM      6  H   UNL     1      52.484  55.001  22.637  1.00  0.00    +0.165 HD
ENDROOT
BRANCH   1   7
ATOM      7  N   UNL     1      51.274  52.501  20.080  1.00  0.00    -0.263 N 
ATOM      8  C   UNL     1      51.491  51.180  20.405  1.00  0.00    +0.262 C 
ATOM      9  O   UNL     1      52.384  50.812  21.162  1.00  0.00    -0.268 OA
ATOM     10  H   UNL     1      50.393  52.819  19.681  1.00  0.00    +0.191 HD
BRANCH   8  11
ATOM     11  C   UNL     1      50.523  50.255  19.768  1.00  0.00    +0.073 C 
ATOM     12  C   UNL     1      49.778  50.680  18.736  1.00  0.00    +0.014 C 
BRANCH  12  13
ATOM     13  C   UNL     1      48.802  49.838  18.032  1.00  0.00    -0.025 A 
ATOM     14  C   UNL     1      46.890  48.286  16.598  1.00  0.00    -0.043 A 
ATOM     15  C   UNL     1      47.030  48.170  17.990  1.00  0.00    +0.005 A 
ATOM     16  C   UNL     1      47.725  49.211  15.946  1.00  0.00    +0.005 A 
ATOM     17  C   UNL     1      47.968  48.936  18.696  1.00  0.00    +0.008 A 
ATOM     18  C   UNL     1      48.662  49.978  16.650  1.00  0.00    +0.008 A 
BRANCH  14  19
ATOM     19  C   UNL     1      45.873  47.460  15.793  1.00  0.00    -0.013 C 
ATOM     20  C   UNL     1      45.981  47.820  14.295  1.00  0.00    +0.016 C 
ATOM     21  C   UNL     1      44.404  47.691  16.213  1.00  0.00    +0.016 C 
ATOM     22  C   UNL     1      46.166  45.954  15.974  1.00  0.00    +0.016 C 
ENDBRANCH  14  19
ENDBRANCH  12  13
ENDBRANCH   8  11
ENDBRANCH   1   7
BRANCH   4  23
ATOM     23  C   UNL     1      51.344  56.753  22.302  1.00  0.00    +0.146 C 
BRANCH  23  24
ATOM     24  C   UNL     1      51.913  57.916  21.486  1.00  0.00    +0.181 C 
BRANCH  24  25
ATOM     25  O   UNL     1      53.248  58.250  21.864  1.00  0.00    -0.383 OA
ATOM     26  C   UNL     1      54.210  57.959  20.859  1.00  0.00    +0.194 C 
ENDBRANCH  24  25
ENDBRANCH  23  24
ENDBRANCH   4  23
TORSDOF 7
ENDMDL
MODEL 3
REMARK VINA RESULT:    -7.333      1.340      2.098
REMARK INTER + INTRA:         -10.969
REMARK INTER:                 -10.305
REMARK INTRA:                  -0.664
REMARK UNBOUND:                -0.635
REMARK SMILES COCCNC(=O)NNC(=O)/C=C/c1ccc(C(C)(C)C)cc1
REMARK SMILES IDX 8 1 6 2 7 3 5 4 9 7 10 8 11 9 12 11 13 12 14 13 17 14 16 15
REMARK SMILES IDX 22 16 15 17 23 18 18 19 19 20 20 21 21 22 4 23 3 24 2 25
REMARK SMILES IDX 1 26
REMARK H PARENT 8 5 5 6 9 10
ROOT
ATOM      1  N   UNL     1      45.746  63.157  19.212  1.00  0.00    -0.249 N 
ATOM      2  C   UNL     1      46.029  63.791  18.019  1.00  0.00    +0.333 C 
ATOM      3  O   UNL     1      47.095  63.653  17.428  1.00  0.00    -0.247 OA
ATOM      4  N   UNL     1      45.015  64.620  17.610  1.00  0.00    -0.334 N 
ATOM      5  H   UNL     1      44.774  62.955  19.434  1.00  0.00    +0.193 HD
ATOM      6  H   UNL     1      44.094  64.389  17.951  1.00  0.00    +0.165 HD
ENDROOT
BRANCH   1   7
ATOM      7  N   UNL     1      46.632  62.125  19.588  1.00  0.00    -0.263 N 
ATOM      8  C   UNL     1      46.209  60.832  19.375  1.00  0.00    +0.262 C 
ATOM      9  O   UNL     1      45.053  60.543  19.078  1.00  0.00    -0.268 OA
ATOM     10  H   UNL     1      47.619  62.378  19.567  1.00  0.00    +0.191 HD
BRANCH   8  11
ATOM     11  C   UNL     1      47.294  59.831  19.515  1.00  0.00    +0.073 C 
ATOM     12  C   UNL     1      47.129  58.782  20.335  1.00  0.00    +0.014 C 
BRANCH  12  13
ATOM     13  C   UNL     1      48.136  57.733  20.533  1.00  0.00    -0.025 A 
ATOM     14  C   UNL     1      50.015  55.623  20.911  1.00  0.00    -0.043 A 
ATOM     15  C   UNL     1      50.150  56.851  21.578  1.00  0.00    +0.005 A 
ATOM     16  C   UNL     1      48.905  55.477  20.059  1.00  0.00    +0.005 A 
ATOM     17  C   UNL     1      49.224  57.887  21.396  1.00  0.00    +0.008 A 
ATOM     18  C   UNL     1      47.979  56.511  19.877  1.00  0.00    +0.008 A 
BRANCH  14  19
ATOM     19  C   UNL     1      51.013  54.466  21.087  1.00  0.00    -0.013 C 
ATOM     20  C   UNL     1      50.330  53.130  20.721  1.00  0.00    +0.016 C 
ATOM     21  C   UNL     1      51.557  54.321  22.526  1.00  0.00    +0.016 C 
ATOM     22  C   UNL     1      52.229  54.683  20.160  1.00  0.00    +0.016 C 
ENDBRANCH  14  19
ENDBRANCH  12  13
ENDBRANCH   8  11
ENDBRANCH   1   7
BRANCH   4  23
ATOM     23  C   UNL     1      45.106  65.299  16.330  1.00  0.00    +0.146 C 
BRANCH  23  24
ATOM     24  C   UNL     1      43.776  65.920  15.903  1.00  0.00    +0.181 C 
BRANCH  24  25
ATOM     25  O   UNL     1      43.344  66.956  16.785  1.00  0.00    -0.383 OA
ATOM     26  C   UNL     1      42.023  66.769  17.274  1.00  0.00    +0.194 C 
ENDBRANCH  24  25
ENDBRANCH  23  24
ENDBRANCH   4  23
TORSDOF 7
ENDMDL
MODEL 4
REMARK VINA RESULT:    -7.172      8.242     11.310
REMARK INTER + INTRA:         -10.742
REMARK INTER:                 -10.138
REMARK INTRA:                  -0.605
REMARK UNBOUND:                -0.635
REMARK SMILES COCCNC(=O)NNC(=O)/C=C/c1ccc(C(C)(C)C)cc1
REMARK SMILES IDX 8 1 6 2 7 3 5 4 9 7 10 8 11 9 12 11 13 12 14 13 17 14 16 15
REMARK SMILES IDX 22 16 15 17 23 18 18 19 19 20 20 21 21 22 4 23 3 24 2 25
REMARK SMILES IDX 1 26
REMARK H PARENT 8 5 5 6 9 10
ROOT
ATOM      1  N   UNL     1      51.955  52.803  18.402  1.00  0.00    -0.249 N 
ATOM      2  C   UNL     1      51.192  53.862  18.850  1.00  0.00    +0.333 C 
ATOM      3  O   UNL     1      50.063  54.094  18.430  1.00  0.00    -0.247 OA
ATOM      4  N   UNL     1      51.857  54.641  19.763  1.00  0.00    -0.334 N 
ATOM      5  H   UNL     1      52.650  52.406  19.031  1.00  0.00    +0.193 HD
ATOM      6  H   UNL     1      52.590  54.181  20.283  1.00  0.00    +0.165 HD
ENDROOT
BRANCH   1   7
ATOM      7  N   UNL     1      51.276  51.832  17.635  1.00  0.00    -0.263 N 
ATOM      8  C   UNL     1      50.642  50.824  18.327  1.00  0.00    +0.262 C 
ATOM      9  O   UNL     1      50.813  50.621  19.527  1.00  0.00    -0.268 OA
ATOM     10  H   UNL     1      50.937  52.159  16.732  1.00  0.00    +0.191 HD
BRANCH   8  11
ATOM     11  C   UNL     1      49.718  50.028  17.485  1.00  0.00    +0.073 C 
ATOM     12  C   UNL     1      48.396  50.242  17.561  1.00  0.00    +0.014 C 
BRANCH  12  13
ATOM     13  C   UNL     1      47.402  49.516  16.761  1.00  0.00    -0.025 A 
ATOM     14  C   UNL     1      45.509  48.157  15.120  1.00  0.00    -0.043 A 
ATOM     15  C   UNL     1      45.186  48.567  16.424  1.00  0.00    +0.005 A 
ATOM     16  C   UNL     1      46.803  48.458  14.657  1.00  0.00    +0.005 A 
ATOM     17  C   UNL     1      46.116  49.239  17.229  1.00  0.00    +0.008 A 
ATOM     18  C   UNL     1      47.732  49.131  15.461  1.00  0.00    +0.008 A 
BRANCH  14  19
ATOM     19  C   UNL     1      44.514  47.416  14.211  1.00  0.00    -0.013 C 
ATOM     20  C   UNL     1      45.232  46.250  13.497  1.00  0.00    +0.016 C 
ATOM     21  C   UNL     1      43.886  48.305  13.114  1.00  0.00    +0.016 C 
ATOM     22  C   UNL     1      43.353  46.853  15.060  1.00  0.00    +0.016 C 
ENDBRANCH  14  19
ENDBRANCH  12  13
ENDBRANCH   8  11
ENDBRANCH   1   7
BRANCH   4  23
ATOM     23  C   UNL     1      51.171  55.749  20.405  1.00  0.00    +0.146 C 
BRANCH  23  24
ATOM     24  C   UNL     1      51.467  55.826  21.904  1.00  0.00    +0.181 C 
BRANCH  24  25
ATOM     25  O   UNL     1      52.753  56.378  22.183  1.00  0.00    -0.383 OA
ATOM     26  C   UNL     1      52.926  57.695  21.675  1.00  0.00    +0.194 C 
ENDBRANCH  24  25
ENDBRANCH  23  24
ENDBRANCH   4  23
TORSDOF 7
ENDMDL
MODEL 5
REMARK VINA RESULT:    -7.076      2.589      3.004
REMARK INTER + INTRA:         -10.607
REMARK INTER:                  -9.952
REMARK INTRA:                  -0.655
REMARK UNBOUND:                -0.635
REMARK SMILES COCCNC(=O)NNC(=O)/C=C/c1ccc(C(C)(C)C)cc1
REMARK SMILES IDX 8 1 6 2 7 3 5 4 9 7 10 8 11 9 12 11 13 12 14 13 17 14 16 15
REMARK SMILES IDX 22 16 15 17 23 18 18 19 19 20 20 21 21 22 4 23 3 24 2 25
REMARK SMILES IDX 1 26
REMARK H PARENT 8 5 5 6 9 10
ROOT
ATOM      1  N   UNL     1      45.123  62.512  19.417  1.00  0.00    -0.249 N 
ATOM      2  C   UNL     1      43.751  62.361  19.447  1.00  0.00    +0.333 C 
ATOM      3  O   UNL     1      43.201  61.265  19.391  1.00  0.00    -0.247 OA
ATOM      4  N   UNL     1      43.090  63.562  19.493  1.00  0.00    -0.334 N 
ATOM      5  H   UNL     1      45.530  63.325  19.873  1.00  0.00    +0.193 HD
ATOM      6  H   UNL     1      43.606  64.334  19.887  1.00  0.00    +0.165 HD
ENDROOT
BRANCH   1   7
ATOM      7  N   UNL     1      45.879  61.333  19.592  1.00  0.00    -0.263 N 
ATOM      8  C   UNL     1      46.459  60.792  18.466  1.00  0.00    +0.262 C 
ATOM      9  O   UNL     1      46.183  61.157  17.326  1.00  0.00    -0.268 OA
ATOM     10  H   UNL     1      46.294  61.224  20.516  1.00  0.00    +0.191 HD
BRANCH   8  11
ATOM     11  C   UNL     1      47.463  59.746  18.771  1.00  0.00    +0.073 C 
ATOM     12  C   UNL     1      47.248  58.892  19.783  1.00  0.00    +0.014 C 
BRANCH  12  13
ATOM     13  C   UNL     1      48.174  57.816  20.156  1.00  0.00    -0.025 A 
ATOM     14  C   UNL     1      50.044  55.800  20.908  1.00  0.00    -0.043 A 
ATOM     15  C   UNL     1      49.197  55.636  19.801  1.00  0.00    +0.005 A 
ATOM     16  C   UNL     1      49.938  57.009  21.621  1.00  0.00    +0.005 A 
ATOM     17  C   UNL     1      48.281  56.628  19.428  1.00  0.00    +0.008 A 
ATOM     18  C   UNL     1      49.023  58.002  21.249  1.00  0.00    +0.008 A 
BRANCH  14  19
ATOM     19  C   UNL     1      51.060  54.731  21.346  1.00  0.00    -0.013 C 
ATOM     20  C   UNL     1      52.246  54.706  20.357  1.00  0.00    +0.016 C 
ATOM     21  C   UNL     1      50.479  53.300  21.399  1.00  0.00    +0.016 C 
ATOM     22  C   UNL     1      51.585  55.061  22.760  1.00  0.00    +0.016 C 
ENDBRANCH  14  19
ENDBRANCH  12  13
ENDBRANCH   8  11
ENDBRANCH   1   7
BRANCH   4  23
ATOM     23  C   UNL     1      41.643  63.587  19.620  1.00  0.00    +0.146 C 
BRANCH  23  24
ATOM     24  C   UNL     1      41.050  64.948  19.252  1.00  0.00    +0.181 C 
BRANCH  24  25
ATOM     25  O   UNL     1      41.885  65.689  18.362  1.00  0.00    -0.383 OA
ATOM     26  C   UNL     1      41.517  67.057  18.250  1.00  0.00    +0.194 C 
ENDBRANCH  24  25
ENDBRANCH  23  24
ENDBRANCH   4  23
TORSDOF 7
ENDMDL
