MODEL 1
REMARK VINA RESULT:    -7.772      0.000      0.000
REMARK INTER + INTRA:         -11.098
REMARK INTER:                 -10.498
REMARK INTRA:                  -0.600
REMARK UNBOUND:                -0.600
REMARK SMILES CN(CCCCNC(=O)N1CCCC1)c1ccccc1
REMARK SMILES IDX 4 1 3 2 2 3 1 4 15 5 16 6 20 7 17 8 19 9 18 10 5 11 6 12
REMARK SMILES IDX 7 13 8 14 9 15 10 16 11 17 14 18 12 19 13 20
REMARK H PARENT 7 21
ROOT
ATOM      1  C   UNL     1      50.932  53.051  21.540  1.00  0.00    +0.023 C 
ENDROOT
BRANCH   1   2
ATOM      2  C   UNL     1      51.517  54.370  22.056  1.00  0.00    +0.116 C 
BRANCH   2   3
ATOM      3  N   UNL     1      51.365  55.454  21.080  1.00  0.00    -0.375 N 
ATOM      4  C   UNL     1      52.332  55.485  19.984  1.00  0.00    +0.143 C 
BRANCH   3   5
ATOM      5  C   UNL     1      50.210  56.232  21.014  1.00  0.00    +0.036 A 
ATOM      6  C   UNL     1      50.029  57.371  21.822  1.00  0.00    +0.026 A 
ATOM      7  C   UNL     1      49.140  55.924  20.154  1.00  0.00    +0.026 A 
ATOM      8  C   UNL     1      48.867  58.155  21.769  1.00  0.00    +0.002 A 
ATOM      9  C   UNL     1      47.974  56.700  20.094  1.00  0.00    +0.002 A 
ATOM     10  C   UNL     1      47.838  57.820  20.902  1.00  0.00    +0.000 A 
ENDBRANCH   3   5
ENDBRANCH   2   3
ENDBRANCH   1   2
BRANCH   1  11
ATOM     11  C   UNL     1      51.994  51.964  21.342  1.00  0.00    +0.023 C 
BRANCH  11  12
ATOM     12  C   UNL     1      52.060  51.450  19.906  1.00  0.00    +0.118 C 
BRANCH  12  13
ATOM     13  N   UNL     1      50.895  50.667  19.543  1.00  0.00    -0.338 N 
ATOM     14  C   UNL     1      50.030  51.142  18.588  1.00  0.00    +0.317 C 
ATOM     15  O   UNL     1      50.154  52.246  18.068  1.00  0.00    -0.249 OA
ATOM     16  N   UNL     1      49.000  50.286  18.280  1.00  0.00    -0.325 N 
ATOM     17  C   UNL     1      47.968  50.688  17.338  1.00  0.00    +0.121 C 
ATOM     18  C   UNL     1      48.657  49.031  18.930  1.00  0.00    +0.121 C 
ATOM     19  C   UNL     1      46.801  49.754  17.626  1.00  0.00    +0.023 C 
ATOM     20  C   UNL     1      47.490  48.488  18.116  1.00  0.00    +0.023 C 
ATOM     21  H   UNL     1      51.035  49.672  19.487  1.00  0.00    +0.165 HD
ENDBRANCH  12  13
ENDBRANCH  11  12
ENDBRANCH   1  11
TORSDOF 6
ENDMDL
MODEL 2
REMARK VINA RESULT:    -7.727      1.006      1.778
REMARK INTER + INTRA:         -11.037
REMARK INTER:                 -10.287
REMARK INTRA:                  -0.750
REMARK UNBOUND:                -0.600
REMARK SMILES CN(CCCCNC(=O)N1CCCC1)c1ccccc1
REMARK SMILES IDX 4 1 3 2 2 3 1 4 15 5 16 6 20 7 17 8 19 9 18 10 5 11 6 12
REMARK SMILES IDX 7 13 8 14 9 15 10 16 11 17 14 18 12 19 13 20
REMARK H PARENT 7 21
ROOT
ATOM      1  C   UNL     1      50.903  53.049  21.758  1.00  0.00    +0.023 C 
ENDROOT
BRANCH   1   2
ATOM      2  C   UNL     1      51.609  54.398  21.939  1.00  0.00    +0.116 C 
BRANCH   2   3
ATOM      3  N   UNL     1      51.277  55.335  20.860  1.00  0.00    -0.375 N 
ATOM      4  C   UNL     1      51.985  55.150  19.595  1.00  0.00    +0.143 C 
BRANCH   3   5
ATOM      5  C   UNL     1      50.156  56.162  20.918  1.00  0.00    +0.036 A 
ATOM      6  C   UNL     1      49.013  55.926  20.129  1.00  0.00    +0.026 A 
ATOM      7  C   UNL     1      50.095  57.294  21.750  1.00  0.00    +0.026 A 
ATOM      8  C   UNL     1      47.883  56.756  20.175  1.00  0.00    +0.002 A 
ATOM      9  C   UNL     1      48.970  58.131  21.802  1.00  0.00    +0.002 A 
ATOM     10  C   UNL     1      47.861  57.860  21.014  1.00  0.00    +0.000 A 
ENDBRANCH   3   5
ENDBRANCH   2   3
ENDBRANCH   1   2
BRANCH   1  11
ATOM     11  C   UNL     1      51.879  51.868  21.709  1.00  0.00    +0.023 C 
BRANCH  11  12
ATOM     12  C   UNL     1      52.194  51.415  20.286  1.00  0.00    +0.118 C 
BRANCH  12  13
ATOM     13  N   UNL     1      51.073  51.600  19.385  1.00  0.00    -0.338 N 
ATOM     14  C   UNL     1      50.248  50.538  19.102  1.00  0.00    +0.317 C 
ATOM     15  O   UNL     1      50.456  49.404  19.522  1.00  0.00    -0.249 OA
ATOM     16  N   UNL     1      49.183  50.847  18.290  1.00  0.00    -0.325 N 
ATOM     17  C   UNL     1      48.269  49.806  17.851  1.00  0.00    +0.121 C 
ATOM     18  C   UNL     1      48.916  52.103  17.607  1.00  0.00    +0.121 C 
ATOM     19  C   UNL     1      47.572  50.396  16.633  1.00  0.00    +0.023 C 
ATOM     20  C   UNL     1      47.568  51.889  16.933  1.00  0.00    +0.023 C 
ATOM     21  H   UNL     1      50.576  52.470  19.475  1.00  0.00    +0.165 HD
ENDBRANCH  12  13
ENDBRANCH  11  12
ENDBRANCH   1  11
TORSDOF 6
ENDMDL
MODEL 3
REMARK VINA RESULT:    -7.530      1.643      6.769
REMARK INTER + INTRA:         -10.770
REMARK INTER:                 -10.213
REMARK INTRA:                  -0.558
REMARK UNBOUND:                -0.600
REMARK SMILES CN(CCCCNC(=O)N1CCCC1)c1ccccc1
REMARK SMILES IDX 4 1 3 2 2 3 1 4 15 5 16 6 20 7 17 8 19 9 18 10 5 11 6 12
REMARK SMILES IDX 7 13 8 14 9 15 10 16 11 17 14 18 12 19 13 20
REMARK H PARENT 7 21
ROOT
ATOM      1  C   UNL     1      51.877  50.596  20.869  1.00  0.00    +0.023 C 
ENDROOT
BRANCH   1   2
ATOM      2  C   UNL     1      51.238  49.622  19.873  1.00  0.00    +0.116 C 
BRANCH   2   3
ATOM      3  N   UNL     1      50.661  50.322  18.719  1.00  0.00    -0.375 N 
ATOM      4  C   UNL     1      51.606  50.947  17.796  1.00  0.00    +0.143 C 
BRANCH   3   5
ATOM      5  C   UNL     1      49.327  50.159  18.348  1.00  0.00    +0.036 A 
ATOM      6  C   UNL     1      48.579  49.028  18.727  1.00  0.00    +0.026 A 
ATOM      7  C   UNL     1      48.643  51.099  17.556  1.00  0.00    +0.026 A 
ATOM      8  C   UNL     1      47.239  48.850  18.352  1.00  0.00    +0.002 A 
ATOM      9  C   UNL     1      47.304  50.932  17.175  1.00  0.00    +0.002 A 
ATOM     10  C   UNL     1      46.600  49.805  17.576  1.00  0.00    +0.000 A 
ENDBRANCH   3   5
ENDBRANCH   2   3
ENDBRANCH   1   2
BRANCH   1  11
ATOM     11  C   UNL     1      50.972  51.787  21.202  1.00  0.00    +0.023 C 
BRANCH  11  12
ATOM     12  C   UNL     1      51.679  53.132  21.048  1.00  0.00    +0.118 C 
BRANCH  12  13
ATOM     13  N   UNL     1      50.747  54.235  20.917  1.00  0.00    -0.338 N 
ATOM     14  C   UNL     1      51.015  55.427  21.545  1.00  0.00    +0.317 C 
ATOM     15  O   UNL     1      51.982  55.588  22.283  1.00  0.00    -0.249 OA
ATOM     16  N   UNL     1      50.097  56.419  21.297  1.00  0.00    -0.325 N 
ATOM     17  C   UNL     1      50.216  57.711  21.952  1.00  0.00    +0.121 C 
ATOM     18  C   UNL     1      48.839  56.311  20.574  1.00  0.00    +0.121 C 
ATOM     19  C   UNL     1      48.829  58.327  21.840  1.00  0.00    +0.023 C 
ATOM     20  C   UNL     1      48.296  57.732  20.544  1.00  0.00    +0.023 C 
ATOM     21  H   UNL     1      50.333  54.355  20.007  1.00  0.00    +0.165 HD
ENDBRANCH  12  13
ENDBRANCH  11  12
ENDBRANCH   1  11
TORSDOF 6
ENDMDL
MODEL 4
REMARK VINA RESULT:    -7.369      1.292      1.967
REMARK INTER + INTRA:         -10.553
REMARK INTER:                 -10.158
REMARK INTRA:                  -0.395
REMARK UNBOUND:                -0.600
REMARK SMILES CN(CCCCNC(=O)N1CCCC1)c1ccccc1
REMARK SMILES IDX 4 1 3 2 2 3 1 4 15 5 16 6 20 7 17 8 19 9 18 10 5 11 6 12
REMARK SMILES IDX 7 13 8 14 9 15 10 16 11 17 14 18 12 19 13 20
REMARK H PARENT 7 21
ROOT
ATOM      1  C   UNL     1      51.841  53.194  18.819  1.00  0.00    +0.023 C 
ENDROOT
BRANCH   1   2
ATOM      2  C   UNL     1      50.459  53.743  19.190  1.00  0.00    +0.116 C 
BRANCH   2   3
ATOM      3  N   UNL     1      50.482  54.455  20.473  1.00  0.00    -0.375 N 
ATOM      4  C   UNL     1      51.541  54.081  21.408  1.00  0.00    +0.143 C 
BRANCH   3   5
ATOM      5  C   UNL     1      49.740  55.617  20.686  1.00  0.00    +0.036 A 
ATOM      6  C   UNL     1      48.500  55.837  20.056  1.00  0.00    +0.026 A 
ATOM      7  C   UNL     1      50.187  56.654  21.525  1.00  0.00    +0.026 A 
ATOM      8  C   UNL     1      47.751  57.006  20.257  1.00  0.00    +0.002 A 
ATOM      9  C   UNL     1      49.446  57.827  21.732  1.00  0.00    +0.002 A 
ATOM     10  C   UNL     1      48.224  58.002  21.099  1.00  0.00    +0.000 A 
ENDBRANCH   3   5
ENDBRANCH   2   3
ENDBRANCH   1   2
BRANCH   1  11
ATOM     11  C   UNL     1      51.959  51.681  19.031  1.00  0.00    +0.023 C 
BRANCH  11  12
ATOM     12  C   UNL     1      51.483  50.872  17.827  1.00  0.00    +0.118 C 
BRANCH  12  13
ATOM     13  N   UNL     1      50.218  50.206  18.073  1.00  0.00    -0.338 N 
ATOM     14  C   UNL     1      49.168  50.405  17.209  1.00  0.00    +0.317 C 
ATOM     15  O   UNL     1      49.223  51.187  16.264  1.00  0.00    -0.249 OA
ATOM     16  N   UNL     1      48.044  49.673  17.504  1.00  0.00    -0.325 N 
ATOM     17  C   UNL     1      46.833  49.838  16.717  1.00  0.00    +0.121 C 
ATOM     18  C   UNL     1      47.801  48.840  18.671  1.00  0.00    +0.121 C 
ATOM     19  C   UNL     1      45.722  49.288  17.601  1.00  0.00    +0.023 C 
ATOM     20  C   UNL     1      46.435  48.218  18.417  1.00  0.00    +0.023 C 
ATOM     21  H   UNL     1      50.278  49.259  18.406  1.00  0.00    +0.165 HD
ENDBRANCH  12  13
ENDBRANCH  11  12
ENDBRANCH   1  11
TORSDOF 6
ENDMDL
MODEL 5
REMARK VINA RESULT:    -6.503      2.463      3.380
REMARK INTER + INTRA:          -9.384
REMARK INTER:                  -9.024
REMARK INTRA:                  -0.360
REMARK UNBOUND:                -0.600
REMARK SMILES CN(CCCCNC(=O)N1CCCC1)c1ccccc1
REMARK SMILES IDX 4 1 3 2 2 3 1 4 15 5 16 6 20 7 17 8 19 9 18 10 5 11 6 12
REMARK SMILES IDX 7 13 8 14 9 15 10 16 11 17 14 18 12 19 13 20
REMARK H PARENT 7 21
ROOT
ATOM      1  C   UNL     1      48.554  53.176  17.603  1.00  0.00    +0.023 C 
ENDROOT
BRANCH   1   2
ATOM      2  C   UNL     1      48.352  54.003  18.877  1.00  0.00    +0.116 C 
BRANCH   2   3
ATOM      3  N   UNL     1      48.669  55.420  18.664  1.00  0.00    -0.375 N 
ATOM      4  C   UNL     1      48.576  55.909  17.290  1.00  0.00    +0.143 C 
BRANCH   3   5
ATOM      5  C   UNL     1      48.763  56.323  19.722  1.00  0.00    +0.036 A 
ATOM      6  C   UNL     1      49.854  56.321  20.611  1.00  0.00    +0.026 A 
ATOM      7  C   UNL     1      47.768  57.282  19.987  1.00  0.00    +0.026 A 
ATOM      8  C   UNL     1      49.955  57.220  21.684  1.00  0.00    +0.002 A 
ATOM      9  C   UNL     1      47.857  58.185  21.056  1.00  0.00    +0.002 A 
ATOM     10  C   UNL     1      48.954  58.155  21.906  1.00  0.00    +0.000 A 
ENDBRANCH   3   5
ENDBRANCH   2   3
ENDBRANCH   1   2
BRANCH   1  11
ATOM     11  C   UNL     1      49.737  52.206  17.703  1.00  0.00    +0.023 C 
BRANCH  11  12
ATOM     12  C   UNL     1      49.549  50.949  16.857  1.00  0.00    +0.118 C 
BRANCH  12  13
ATOM     13  N   UNL     1      48.245  50.344  17.046  1.00  0.00    -0.338 N 
ATOM     14  C   UNL     1      48.079  49.002  16.806  1.00  0.00    +0.317 C 
ATOM     15  O   UNL     1      48.976  48.289  16.364  1.00  0.00    -0.249 OA
ATOM     16  N   UNL     1      46.820  48.527  17.081  1.00  0.00    -0.325 N 
ATOM     17  C   UNL     1      46.481  47.140  16.807  1.00  0.00    +0.121 C 
ATOM     18  C   UNL     1      45.640  49.291  17.456  1.00  0.00    +0.121 C 
ATOM     19  C   UNL     1      44.960  47.119  16.756  1.00  0.00    +0.023 C 
ATOM     20  C   UNL     1      44.572  48.237  17.714  1.00  0.00    +0.023 C 
ATOM     21  H   UNL     1      47.721  50.669  17.841  1.00  0.00    +0.165 HD
ENDBRANCH  12  13
ENDBRANCH  11  12
ENDBRANCH   1  11
TORSDOF 6
ENDMDL
