MODEL 1
REMARK VINA RESULT:    -7.893      0.000      0.000
REMARK INTER + INTRA:         -11.265
REMARK INTER:                 -10.662
REMARK INTRA:                  -0.603
REMARK UNBOUND:                -0.603
REMARK SMILES Cc1[nH]c[nH+]c1[C@H]1C(c2ccccc2)=NCN1CCNS(C)(=O)=O
REMARK SMILES IDX 18 1 17 2 7 3 8 4 15 5 16 6 6 7 2 8 3 9 5 10 4 11 1 12 9 15
REMARK SMILES IDX 10 16 14 17 11 18 13 19 12 20 19 21 20 22 21 24 23 25 24 26
REMARK SMILES IDX 22 27
REMARK H PARENT 3 13 5 14 20 23
ROOT
ATOM      1  C   UNL     1      51.205  52.443  18.368  1.00  0.00    +0.104 C 
ENDROOT
BRANCH   1   2
ATOM      2  N   UNL     1      50.219  51.438  18.765  1.00  0.00    -0.267 NA
ATOM      3  C   UNL     1      49.421  50.831  17.701  1.00  0.00    +0.183 C 
ATOM      4  C   UNL     1      49.066  49.506  18.352  1.00  0.00    +0.069 C 
ATOM      5  N   UNL     1      49.854  49.151  19.325  1.00  0.00    -0.271 NA
ATOM      6  C   UNL     1      50.714  50.325  19.560  1.00  0.00    +0.230 C 
BRANCH   3   7
ATOM      7  C   UNL     1      50.132  50.470  16.429  1.00  0.00    +0.166 A 
ATOM      8  C   UNL     1      49.644  50.184  15.164  1.00  0.00    +0.142 A 
ATOM      9  N   UNL     1      50.760  49.909  14.382  1.00  0.00    -0.248 N 
ATOM     10  N   UNL     1      51.520  50.364  16.320  1.00  0.00    -0.246 N 
ATOM     11  C   UNL     1      51.886  50.010  15.090  1.00  0.00    +0.400 A 
ATOM     12  C   UNL     1      48.269  50.140  14.636  1.00  0.00    +0.097 C 
ATOM     13  H   UNL     1      50.732  49.652  13.397  1.00  0.00    +0.311 HD
ATOM     14  H   UNL     1      52.165  50.497  17.102  1.00  0.00    +0.311 HD
ENDBRANCH   3   7
BRANCH   4  15
ATOM     15  C   UNL     1      47.972  48.635  17.847  1.00  0.00    -0.002 A 
ATOM     16  C   UNL     1      46.649  49.062  18.015  1.00  0.00    +0.010 A 
ATOM     17  C   UNL     1      48.228  47.411  17.217  1.00  0.00    +0.010 A 
ATOM     18  C   UNL     1      45.591  48.264  17.578  1.00  0.00    +0.001 A 
ATOM     19  C   UNL     1      47.165  46.615  16.781  1.00  0.00    +0.001 A 
ATOM     20  C   UNL     1      45.850  47.040  16.965  1.00  0.00    +0.000 A 
ENDBRANCH   4  15
ENDBRANCH   1   2
BRANCH   1  21
ATOM     21  C   UNL     1      52.314  52.722  19.406  1.00  0.00    +0.114 C 
BRANCH  21  22
ATOM     22  N   UNL     1      52.358  54.152  19.778  1.00  0.00    -0.214 NA
ATOM     23  H   UNL     1      53.300  54.539  19.864  1.00  0.00    +0.141 HD
BRANCH  22  24
ATOM     24  S   UNL     1      51.533  54.584  21.194  1.00  0.00    +0.208 S 
ATOM     25  O   UNL     1      50.168  54.810  20.779  1.00  0.00    -0.213 OA
ATOM     26  O   UNL     1      52.314  55.594  21.869  1.00  0.00    -0.213 OA
ATOM     27  C   UNL     1      51.596  53.064  22.120  1.00  0.00    +0.176 C 
ENDBRANCH  22  24
ENDBRANCH  21  22
ENDBRANCH   1  21
TORSDOF 6
ENDMDL
MODEL 2
REMARK VINA RESULT:    -7.873      4.299      7.527
REMARK INTER + INTRA:         -11.238
REMARK INTER:                 -10.581
REMARK INTRA:                  -0.657
REMARK UNBOUND:                -0.603
REMARK SMILES Cc1[nH]c[nH+]c1[C@H]1C(c2ccccc2)=NCN1CCNS(C)(=O)=O
REMARK SMILES IDX 18 1 17 2 7 3 8 4 15 5 16 6 6 7 2 8 3 9 5 10 4 11 1 12 9 15
REMARK SMILES IDX 10 16 14 17 11 18 13 19 12 20 19 21 20 22 21 24 23 25 24 26
REMARK SMILES IDX 22 27
REMARK H PARENT 3 13 5 14 20 23
ROOT
ATOM      1  C   UNL     1      48.536  51.736  17.624  1.00  0.00    +0.104 C 
ENDROOT
BRANCH   1   2
ATOM      2  N   UNL     1      48.236  53.100  18.057  1.00  0.00    -0.267 NA
ATOM      3  C   UNL     1      48.938  53.593  19.241  1.00  0.00    +0.183 C 
ATOM      4  C   UNL     1      48.893  55.088  18.980  1.00  0.00    +0.069 C 
ATOM      5  N   UNL     1      48.701  55.415  17.735  1.00  0.00    -0.271 NA
ATOM      6  C   UNL     1      48.389  54.144  17.056  1.00  0.00    +0.230 C 
BRANCH   3   7
ATOM      7  C   UNL     1      50.394  53.255  19.368  1.00  0.00    +0.166 A 
ATOM      8  C   UNL     1      51.116  52.720  20.424  1.00  0.00    +0.142 A 
ATOM      9  N   UNL     1      52.429  52.635  19.979  1.00  0.00    -0.248 N 
ATOM     10  N   UNL     1      51.326  53.443  18.345  1.00  0.00    -0.246 N 
ATOM     11  C   UNL     1      52.549  53.084  18.728  1.00  0.00    +0.400 A 
ATOM     12  C   UNL     1      50.701  52.296  21.773  1.00  0.00    +0.097 C 
ATOM     13  H   UNL     1      53.211  52.287  20.532  1.00  0.00    +0.311 HD
ATOM     14  H   UNL     1      51.099  53.850  17.435  1.00  0.00    +0.311 HD
ENDBRANCH   3   7
BRANCH   4  15
ATOM     15  C   UNL     1      49.157  56.093  20.042  1.00  0.00    -0.002 A 
ATOM     16  C   UNL     1      48.154  57.024  20.342  1.00  0.00    +0.010 A 
ATOM     17  C   UNL     1      50.370  56.136  20.740  1.00  0.00    +0.010 A 
ATOM     18  C   UNL     1      48.368  58.000  21.316  1.00  0.00    +0.001 A 
ATOM     19  C   UNL     1      50.580  57.117  21.713  1.00  0.00    +0.001 A 
ATOM     20  C   UNL     1      49.582  58.048  21.997  1.00  0.00    +0.000 A 
ENDBRANCH   4  15
ENDBRANCH   1   2
BRANCH   1  21
ATOM     21  C   UNL     1      48.815  51.571  16.114  1.00  0.00    +0.114 C 
BRANCH  21  22
ATOM     22  N   UNL     1      49.974  50.686  15.874  1.00  0.00    -0.214 NA
ATOM     23  H   UNL     1      50.826  51.172  15.583  1.00  0.00    +0.141 HD
BRANCH  22  24
ATOM     24  S   UNL     1      49.739  49.428  14.762  1.00  0.00    +0.208 S 
ATOM     25  O   UNL     1      49.485  48.257  15.569  1.00  0.00    -0.213 OA
ATOM     26  O   UNL     1      50.813  49.486  13.798  1.00  0.00    -0.213 OA
ATOM     27  C   UNL     1      48.215  49.920  13.985  1.00  0.00    +0.176 C 
ENDBRANCH  22  24
ENDBRANCH  21  22
ENDBRANCH   1  21
TORSDOF 6
ENDMDL
MODEL 3
REMARK VINA RESULT:    -7.803      4.079      6.722
REMARK INTER + INTRA:         -11.143
REMARK INTER:                 -10.345
REMARK INTRA:                  -0.797
REMARK UNBOUND:                -0.603
REMARK SMILES Cc1[nH]c[nH+]c1[C@H]1C(c2ccccc2)=NCN1CCNS(C)(=O)=O
REMARK SMILES IDX 18 1 17 2 7 3 8 4 15 5 16 6 6 7 2 8 3 9 5 10 4 11 1 12 9 15
REMARK SMILES IDX 10 16 14 17 11 18 13 19 12 20 19 21 20 22 21 24 23 25 24 26
REMARK SMILES IDX 22 27
REMARK H PARENT 3 13 5 14 20 23
ROOT
ATOM      1  C   UNL     1      48.621  48.963  16.865  1.00  0.00    +0.104 C 
ENDROOT
BRANCH   1   2
ATOM      2  N   UNL     1      48.274  50.364  17.100  1.00  0.00    -0.267 NA
ATOM      3  C   UNL     1      49.013  51.067  18.147  1.00  0.00    +0.183 C 
ATOM      4  C   UNL     1      48.875  52.499  17.662  1.00  0.00    +0.069 C 
ATOM      5  N   UNL     1      48.596  52.618  16.396  1.00  0.00    -0.271 NA
ATOM      6  C   UNL     1      48.315  51.243  15.942  1.00  0.00    +0.230 C 
BRANCH   3   7
ATOM      7  C   UNL     1      50.491  50.818  18.232  1.00  0.00    +0.166 A 
ATOM      8  C   UNL     1      51.242  50.106  19.154  1.00  0.00    +0.142 A 
ATOM      9  N   UNL     1      52.562  50.225  18.737  1.00  0.00    -0.248 N 
ATOM     10  N   UNL     1      51.414  51.308  17.306  1.00  0.00    -0.246 N 
ATOM     11  C   UNL     1      52.658  50.960  17.628  1.00  0.00    +0.400 A 
ATOM     12  C   UNL     1      50.849  49.350  20.356  1.00  0.00    +0.097 C 
ATOM     13  H   UNL     1      53.364  49.817  19.216  1.00  0.00    +0.311 HD
ATOM     14  H   UNL     1      51.164  51.897  16.509  1.00  0.00    +0.311 HD
ENDBRANCH   3   7
BRANCH   4  15
ATOM     15  C   UNL     1      49.144  53.670  18.537  1.00  0.00    -0.002 A 
ATOM     16  C   UNL     1      48.706  54.931  18.115  1.00  0.00    +0.010 A 
ATOM     17  C   UNL     1      49.818  53.546  19.758  1.00  0.00    +0.010 A 
ATOM     18  C   UNL     1      48.958  56.061  18.894  1.00  0.00    +0.001 A 
ATOM     19  C   UNL     1      50.069  54.681  20.534  1.00  0.00    +0.001 A 
ATOM     20  C   UNL     1      49.642  55.935  20.101  1.00  0.00    +0.000 A 
ENDBRANCH   4  15
ENDBRANCH   1   2
BRANCH   1  21
ATOM     21  C   UNL     1      47.739  47.934  17.605  1.00  0.00    +0.114 C 
BRANCH  21  22
ATOM     22  N   UNL     1      46.558  47.558  16.799  1.00  0.00    -0.214 NA
ATOM     23  H   UNL     1      46.627  47.800  15.807  1.00  0.00    +0.141 HD
BRANCH  22  24
ATOM     24  S   UNL     1      45.065  48.155  17.334  1.00  0.00    +0.208 S 
ATOM     25  O   UNL     1      44.093  47.617  16.411  1.00  0.00    -0.213 OA
ATOM     26  O   UNL     1      45.214  49.574  17.561  1.00  0.00    -0.213 OA
ATOM     27  C   UNL     1      44.886  47.318  18.895  1.00  0.00    +0.176 C 
ENDBRANCH  22  24
ENDBRANCH  21  22
ENDBRANCH   1  21
TORSDOF 6
ENDMDL
MODEL 4
REMARK VINA RESULT:    -6.826      5.244      8.109
REMARK INTER + INTRA:          -9.824
REMARK INTER:                  -9.509
REMARK INTRA:                  -0.315
REMARK UNBOUND:                -0.603
REMARK SMILES Cc1[nH]c[nH+]c1[C@H]1C(c2ccccc2)=NCN1CCNS(C)(=O)=O
REMARK SMILES IDX 18 1 17 2 7 3 8 4 15 5 16 6 6 7 2 8 3 9 5 10 4 11 1 12 9 15
REMARK SMILES IDX 10 16 14 17 11 18 13 19 12 20 19 21 20 22 21 24 23 25 24 26
REMARK SMILES IDX 22 27
REMARK H PARENT 3 13 5 14 20 23
ROOT
ATOM      1  C   UNL     1      49.899  53.698  20.718  1.00  0.00    +0.104 C 
ENDROOT
BRANCH   1   2
ATOM      2  N   UNL     1      48.991  54.461  19.863  1.00  0.00    -0.267 NA
ATOM      3  C   UNL     1      48.861  55.891  20.137  1.00  0.00    +0.183 C 
ATOM      4  C   UNL     1      48.433  56.392  18.769  1.00  0.00    +0.069 C 
ATOM      5  N   UNL     1      48.729  55.595  17.783  1.00  0.00    -0.271 NA
ATOM      6  C   UNL     1      49.215  54.361  18.429  1.00  0.00    +0.230 C 
BRANCH   3   7
ATOM      7  C   UNL     1      50.117  56.646  20.460  1.00  0.00    +0.166 A 
ATOM      8  C   UNL     1      50.374  57.618  21.414  1.00  0.00    +0.142 A 
ATOM      9  N   UNL     1      51.709  57.966  21.248  1.00  0.00    -0.248 N 
ATOM     10  N   UNL     1      51.328  56.461  19.789  1.00  0.00    -0.246 N 
ATOM     11  C   UNL     1      52.274  57.271  20.259  1.00  0.00    +0.400 A 
ATOM     12  C   UNL     1      49.509  58.236  22.435  1.00  0.00    +0.097 C 
ATOM     13  H   UNL     1      52.201  58.669  21.798  1.00  0.00    +0.311 HD
ATOM     14  H   UNL     1      51.452  55.816  19.006  1.00  0.00    +0.311 HD
ENDBRANCH   3   7
BRANCH   4  15
ATOM     15  C   UNL     1      47.824  57.732  18.561  1.00  0.00    -0.002 A 
ATOM     16  C   UNL     1      47.603  58.543  19.681  1.00  0.00    +0.010 A 
ATOM     17  C   UNL     1      47.467  58.197  17.290  1.00  0.00    +0.010 A 
ATOM     18  C   UNL     1      47.012  59.799  19.535  1.00  0.00    +0.001 A 
ATOM     19  C   UNL     1      46.875  59.455  17.149  1.00  0.00    +0.001 A 
ATOM     20  C   UNL     1      46.645  60.251  18.269  1.00  0.00    +0.000 A 
ENDBRANCH   4  15
ENDBRANCH   1   2
BRANCH   1  21
ATOM     21  C   UNL     1      50.886  52.775  19.970  1.00  0.00    +0.114 C 
BRANCH  21  22
ATOM     22  N   UNL     1      50.843  51.396  20.502  1.00  0.00    -0.214 NA
ATOM     23  H   UNL     1      50.981  51.328  21.513  1.00  0.00    +0.141 HD
BRANCH  22  24
ATOM     24  S   UNL     1      51.913  50.287  19.798  1.00  0.00    +0.208 S 
ATOM     25  O   UNL     1      51.202  49.029  19.796  1.00  0.00    -0.213 OA
ATOM     26  O   UNL     1      53.199  50.449  20.435  1.00  0.00    -0.213 OA
ATOM     27  C   UNL     1      51.998  50.889  18.124  1.00  0.00    +0.176 C 
ENDBRANCH  22  24
ENDBRANCH  21  22
ENDBRANCH   1  21
TORSDOF 6
ENDMDL
MODEL 5
REMARK VINA RESULT:    -6.388     10.978     12.577
REMARK INTER + INTRA:          -9.232
REMARK INTER:                  -7.704
REMARK INTRA:                  -1.528
REMARK UNBOUND:                -0.603
REMARK SMILES Cc1[nH]c[nH+]c1[C@H]1C(c2ccccc2)=NCN1CCNS(C)(=O)=O
REMARK SMILES IDX 18 1 17 2 7 3 8 4 15 5 16 6 6 7 2 8 3 9 5 10 4 11 1 12 9 15
REMARK SMILES IDX 10 16 14 17 11 18 13 19 12 20 19 21 20 22 21 24 23 25 24 26
REMARK SMILES IDX 22 27
REMARK H PARENT 3 13 5 14 20 23
ROOT
ATOM      1  C   UNL     1      44.573  63.969  18.615  1.00  0.00    +0.104 C 
ENDROOT
BRANCH   1   2
ATOM      2  N   UNL     1      45.697  63.084  18.915  1.00  0.00    -0.267 NA
ATOM      3  C   UNL     1      45.418  61.650  18.979  1.00  0.00    +0.183 C 
ATOM      4  C   UNL     1      46.790  61.091  18.650  1.00  0.00    +0.069 C 
ATOM      5  N   UNL     1      47.579  61.919  18.029  1.00  0.00    -0.271 NA
ATOM      6  C   UNL     1      46.867  63.211  18.060  1.00  0.00    +0.230 C 
BRANCH   3   7
ATOM      7  C   UNL     1      44.498  61.081  17.938  1.00  0.00    +0.166 A 
ATOM      8  C   UNL     1      43.187  60.641  18.025  1.00  0.00    +0.142 A 
ATOM      9  N   UNL     1      42.849  60.209  16.748  1.00  0.00    -0.248 N 
ATOM     10  N   UNL     1      44.860  60.899  16.601  1.00  0.00    -0.246 N 
ATOM     11  C   UNL     1      43.867  60.358  15.898  1.00  0.00    +0.400 A 
ATOM     12  C   UNL     1      42.250  60.585  19.160  1.00  0.00    +0.097 C 
ATOM     13  H   UNL     1      41.946  59.817  16.485  1.00  0.00    +0.311 HD
ATOM     14  H   UNL     1      45.786  61.112  16.227  1.00  0.00    +0.311 HD
ENDBRANCH   3   7
BRANCH   4  15
ATOM     15  C   UNL     1      47.164  59.678  18.920  1.00  0.00    -0.002 A 
ATOM     16  C   UNL     1      47.174  59.233  20.248  1.00  0.00    +0.010 A 
ATOM     17  C   UNL     1      47.506  58.791  17.891  1.00  0.00    +0.010 A 
ATOM     18  C   UNL     1      47.542  57.921  20.547  1.00  0.00    +0.001 A 
ATOM     19  C   UNL     1      47.874  57.478  18.197  1.00  0.00    +0.001 A 
ATOM     20  C   UNL     1      47.896  57.046  19.522  1.00  0.00    +0.000 A 
ENDBRANCH   4  15
ENDBRANCH   1   2
BRANCH   1  21
ATOM     21  C   UNL     1      44.706  64.782  17.309  1.00  0.00    +0.114 C 
BRANCH  21  22
ATOM     22  N   UNL     1      43.955  64.151  16.203  1.00  0.00    -0.214 NA
ATOM     23  H   UNL     1      43.753  63.158  16.340  1.00  0.00    +0.141 HD
BRANCH  22  24
ATOM     24  S   UNL     1      44.638  64.291  14.658  1.00  0.00    +0.208 S 
ATOM     25  O   UNL     1      43.872  65.325  14.001  1.00  0.00    -0.213 OA
ATOM     26  O   UNL     1      44.769  62.961  14.112  1.00  0.00    -0.213 OA
ATOM     27  C   UNL     1      46.251  64.941  15.039  1.00  0.00    +0.176 C 
ENDBRANCH  22  24
ENDBRANCH  21  22
ENDBRANCH   1  21
TORSDOF 6
ENDMDL
