MODEL 1
REMARK VINA RESULT:    -6.787      0.000      0.000
REMARK INTER + INTRA:         -11.320
REMARK INTER:                 -10.556
REMARK INTRA:                  -0.764
REMARK UNBOUND:                -0.764
REMARK SMILES CCCN(CCO)C(=O)NCCC(=O)NC1CCCC1
REMARK SMILES IDX 8 1 9 2 10 3 4 5 3 6 2 7 1 8 5 9 6 10 7 11 11 13 12 14 13 15
REMARK SMILES IDX 14 16 15 17 16 19 17 20 20 21 18 22 19 23
REMARK H PARENT 10 4 7 12 15 18
ROOT
ATOM      1  C   UNL     1      51.679  55.387  21.857  1.00  0.00    +0.317 C 
ATOM      2  O   UNL     1      51.963  55.067  23.007  1.00  0.00    -0.249 OA
ATOM      3  N   UNL     1      51.590  54.465  20.845  1.00  0.00    -0.337 N 
ATOM      4  H   UNL     1      51.916  54.811  19.957  1.00  0.00    +0.165 HD
ENDROOT
BRANCH   1   5
ATOM      5  N   UNL     1      51.417  56.697  21.487  1.00  0.00    -0.323 N 
BRANCH   5   6
ATOM      6  C   UNL     1      50.196  57.447  21.805  1.00  0.00    +0.121 C 
BRANCH   6   7
ATOM      7  C   UNL     1      48.976  56.984  21.006  1.00  0.00    +0.018 C 
ATOM      8  C   UNL     1      47.882  58.038  20.919  1.00  0.00    +0.006 C 
ENDBRANCH   6   7
ENDBRANCH   5   6
BRANCH   5   9
ATOM      9  C   UNL     1      52.511  57.441  20.856  1.00  0.00    +0.149 C 
BRANCH   9  10
ATOM     10  C   UNL     1      53.588  57.892  21.848  1.00  0.00    +0.177 C 
BRANCH  10  11
ATOM     11  O   UNL     1      53.240  59.145  22.433  1.00  0.00    -0.395 OA
ATOM     12  H   UNL     1      52.377  59.038  22.866  1.00  0.00    +0.210 HD
ENDBRANCH  10  11
ENDBRANCH   9  10
ENDBRANCH   5   9
ENDBRANCH   1   5
BRANCH   3  13
ATOM     13  C   UNL     1      51.897  53.063  21.090  1.00  0.00    +0.127 C 
BRANCH  13  14
ATOM     14  C   UNL     1      50.820  52.121  20.567  1.00  0.00    +0.121 C 
BRANCH  14  15
ATOM     15  C   UNL     1      50.708  52.208  19.060  1.00  0.00    +0.221 C 
ATOM     16  O   UNL     1      51.368  52.980  18.374  1.00  0.00    -0.275 OA
ATOM     17  N   UNL     1      49.763  51.346  18.543  1.00  0.00    -0.353 N 
ATOM     18  H   UNL     1      49.167  50.842  19.187  1.00  0.00    +0.163 HD
BRANCH  17  19
ATOM     19  C   UNL     1      49.427  51.342  17.128  1.00  0.00    +0.082 C 
ATOM     20  C   UNL     1      48.534  50.160  16.769  1.00  0.00    +0.025 C 
ATOM     21  C   UNL     1      48.559  52.539  16.749  1.00  0.00    +0.025 C 
ATOM     22  C   UNL     1      47.119  50.607  17.135  1.00  0.00    +0.002 C 
ATOM     23  C   UNL     1      47.149  52.135  17.169  1.00  0.00    +0.002 C 
ENDBRANCH  17  19
ENDBRANCH  14  15
ENDBRANCH  13  14
ENDBRANCH   3  13
TORSDOF 10
ENDMDL
MODEL 2
REMARK VINA RESULT:    -6.661      3.316      5.340
REMARK INTER + INTRA:         -11.125
REMARK INTER:                 -10.063
REMARK INTRA:                  -1.062
REMARK UNBOUND:                -0.764
REMARK SMILES CCCN(CCO)C(=O)NCCC(=O)NC1CCCC1
REMARK SMILES IDX 8 1 9 2 10 3 4 5 3 6 2 7 1 8 5 9 6 10 7 11 11 13 12 14 13 15
REMARK SMILES IDX 14 16 15 17 16 19 17 20 20 21 18 22 19 23
REMARK H PARENT 10 4 7 12 15 18
ROOT
ATOM      1  C   UNL     1      50.740  52.716  18.765  1.00  0.00    +0.317 C 
ATOM      2  O   UNL     1      51.426  53.651  18.362  1.00  0.00    -0.249 OA
ATOM      3  N   UNL     1      49.420  52.577  18.416  1.00  0.00    -0.337 N 
ATOM      4  H   UNL     1      48.846  52.205  19.156  1.00  0.00    +0.165 HD
ENDROOT
BRANCH   1   5
ATOM      5  N   UNL     1      51.238  51.724  19.595  1.00  0.00    -0.323 N 
BRANCH   5   6
ATOM      6  C   UNL     1      51.940  51.947  20.865  1.00  0.00    +0.121 C 
BRANCH   6   7
ATOM      7  C   UNL     1      51.088  52.673  21.908  1.00  0.00    +0.018 C 
ATOM      8  C   UNL     1      51.552  54.098  22.173  1.00  0.00    +0.006 C 
ENDBRANCH   6   7
ENDBRANCH   5   6
BRANCH   5   9
ATOM      9  C   UNL     1      50.905  50.339  19.251  1.00  0.00    +0.149 C 
BRANCH   9  10
ATOM     10  C   UNL     1      51.686  49.307  20.071  1.00  0.00    +0.177 C 
BRANCH  10  11
ATOM     11  O   UNL     1      52.939  49.018  19.454  1.00  0.00    -0.395 OA
ATOM     12  H   UNL     1      52.989  48.055  19.326  1.00  0.00    +0.210 HD
ENDBRANCH  10  11
ENDBRANCH   9  10
ENDBRANCH   5   9
ENDBRANCH   1   5
BRANCH   3  13
ATOM     13  C   UNL     1      48.760  53.583  17.595  1.00  0.00    +0.127 C 
BRANCH  13  14
ATOM     14  C   UNL     1      47.851  52.976  16.534  1.00  0.00    +0.121 C 
BRANCH  14  15
ATOM     15  C   UNL     1      48.162  51.511  16.325  1.00  0.00    +0.221 C 
ATOM     16  O   UNL     1      49.198  51.104  15.812  1.00  0.00    -0.275 OA
ATOM     17  N   UNL     1      47.143  50.681  16.746  1.00  0.00    -0.353 N 
ATOM     18  H   UNL     1      46.267  51.101  17.032  1.00  0.00    +0.163 HD
BRANCH  17  19
ATOM     19  C   UNL     1      47.198  49.242  16.544  1.00  0.00    +0.082 C 
ATOM     20  C   UNL     1      47.627  48.515  17.815  1.00  0.00    +0.025 C 
ATOM     21  C   UNL     1      45.814  48.654  16.280  1.00  0.00    +0.025 C 
ATOM     22  C   UNL     1      46.352  48.381  18.645  1.00  0.00    +0.002 C 
ATOM     23  C   UNL     1      45.187  48.520  17.665  1.00  0.00    +0.002 C 
ENDBRANCH  17  19
ENDBRANCH  14  15
ENDBRANCH  13  14
ENDBRANCH   3  13
TORSDOF 10
ENDMDL
MODEL 3
REMARK VINA RESULT:    -6.516      2.265      6.914
REMARK INTER + INTRA:         -10.899
REMARK INTER:                  -9.809
REMARK INTRA:                  -1.090
REMARK UNBOUND:                -0.764
REMARK SMILES CCCN(CCO)C(=O)NCCC(=O)NC1CCCC1
REMARK SMILES IDX 8 1 9 2 10 3 4 5 3 6 2 7 1 8 5 9 6 10 7 11 11 13 12 14 13 15
REMARK SMILES IDX 14 16 15 17 16 19 17 20 20 21 18 22 19 23
REMARK H PARENT 10 4 7 12 15 18
ROOT
ATOM      1  C   UNL     1      50.513  49.970  20.041  1.00  0.00    +0.317 C 
ATOM      2  O   UNL     1      50.465  49.222  21.013  1.00  0.00    -0.249 OA
ATOM      3  N   UNL     1      51.333  51.070  20.008  1.00  0.00    -0.337 N 
ATOM      4  H   UNL     1      50.930  51.857  19.524  1.00  0.00    +0.165 HD
ENDROOT
BRANCH   1   5
ATOM      5  N   UNL     1      49.755  49.765  18.899  1.00  0.00    -0.323 N 
BRANCH   5   6
ATOM      6  C   UNL     1      48.985  48.554  18.592  1.00  0.00    +0.121 C 
BRANCH   6   7
ATOM      7  C   UNL     1      47.489  48.699  18.877  1.00  0.00    +0.018 C 
ATOM      8  C   UNL     1      46.638  48.713  17.615  1.00  0.00    +0.006 C 
ENDBRANCH   6   7
ENDBRANCH   5   6
BRANCH   5   9
ATOM      9  C   UNL     1      49.587  50.909  17.998  1.00  0.00    +0.149 C 
BRANCH   9  10
ATOM     10  C   UNL     1      50.220  50.691  16.619  1.00  0.00    +0.177 C 
BRANCH  10  11
ATOM     11  O   UNL     1      51.642  50.682  16.715  1.00  0.00    -0.395 OA
ATOM     12  H   UNL     1      51.876  50.316  17.585  1.00  0.00    +0.210 HD
ENDBRANCH  10  11
ENDBRANCH   9  10
ENDBRANCH   5   9
ENDBRANCH   1   5
BRANCH   3  13
ATOM     13  C   UNL     1      52.139  51.429  21.167  1.00  0.00    +0.127 C 
BRANCH  13  14
ATOM     14  C   UNL     1      51.694  52.733  21.816  1.00  0.00    +0.121 C 
BRANCH  14  15
ATOM     15  C   UNL     1      51.711  53.870  20.818  1.00  0.00    +0.221 C 
ATOM     16  O   UNL     1      52.316  53.829  19.753  1.00  0.00    -0.275 OA
ATOM     17  N   UNL     1      50.996  54.969  21.247  1.00  0.00    -0.353 N 
ATOM     18  H   UNL     1      50.641  54.973  22.195  1.00  0.00    +0.163 HD
BRANCH  17  19
ATOM     19  C   UNL     1      50.967  56.206  20.482  1.00  0.00    +0.082 C 
ATOM     20  C   UNL     1      49.639  56.381  19.753  1.00  0.00    +0.025 C 
ATOM     21  C   UNL     1      51.009  57.434  21.389  1.00  0.00    +0.025 C 
ATOM     22  C   UNL     1      48.688  56.967  20.796  1.00  0.00    +0.002 C 
ATOM     23  C   UNL     1      49.571  57.600  21.871  1.00  0.00    +0.002 C 
ENDBRANCH  17  19
ENDBRANCH  14  15
ENDBRANCH  13  14
ENDBRANCH   3  13
TORSDOF 10
ENDMDL
MODEL 4
REMARK VINA RESULT:    -6.398      3.640      5.379
REMARK INTER + INTRA:         -10.716
REMARK INTER:                  -9.392
REMARK INTRA:                  -1.324
REMARK UNBOUND:                -0.764
REMARK SMILES CCCN(CCO)C(=O)NCCC(=O)NC1CCCC1
REMARK SMILES IDX 8 1 9 2 10 3 4 5 3 6 2 7 1 8 5 9 6 10 7 11 11 13 12 14 13 15
REMARK SMILES IDX 14 16 15 17 16 19 17 20 20 21 18 22 19 23
REMARK H PARENT 10 4 7 12 15 18
ROOT
ATOM      1  C   UNL     1      50.150  52.737  19.027  1.00  0.00    +0.317 C 
ATOM      2  O   UNL     1      49.755  53.633  19.766  1.00  0.00    -0.249 OA
ATOM      3  N   UNL     1      49.669  52.578  17.752  1.00  0.00    -0.337 N 
ATOM      4  H   UNL     1      49.587  51.614  17.471  1.00  0.00    +0.165 HD
ENDROOT
BRANCH   1   5
ATOM      5  N   UNL     1      51.115  51.819  19.412  1.00  0.00    -0.323 N 
BRANCH   5   6
ATOM      6  C   UNL     1      51.226  50.440  18.921  1.00  0.00    +0.121 C 
BRANCH   6   7
ATOM      7  C   UNL     1      50.128  49.518  19.452  1.00  0.00    +0.018 C 
ATOM      8  C   UNL     1      50.541  48.752  20.700  1.00  0.00    +0.006 C 
ENDBRANCH   6   7
ENDBRANCH   5   6
BRANCH   5   9
ATOM      9  C   UNL     1      52.200  52.313  20.265  1.00  0.00    +0.149 C 
BRANCH   9  10
ATOM     10  C   UNL     1      52.003  51.983  21.748  1.00  0.00    +0.177 C 
BRANCH  10  11
ATOM     11  O   UNL     1      51.333  53.050  22.416  1.00  0.00    -0.395 OA
ATOM     12  H   UNL     1      51.775  53.186  23.271  1.00  0.00    +0.210 HD
ENDBRANCH  10  11
ENDBRANCH   9  10
ENDBRANCH   5   9
ENDBRANCH   1   5
BRANCH   3  13
ATOM     13  C   UNL     1      48.612  53.442  17.246  1.00  0.00    +0.127 C 
BRANCH  13  14
ATOM     14  C   UNL     1      47.297  52.704  17.032  1.00  0.00    +0.121 C 
BRANCH  14  15
ATOM     15  C   UNL     1      47.540  51.279  16.587  1.00  0.00    +0.221 C 
ATOM     16  O   UNL     1      48.441  50.950  15.824  1.00  0.00    -0.275 OA
ATOM     17  N   UNL     1      46.621  50.391  17.107  1.00  0.00    -0.353 N 
ATOM     18  H   UNL     1      45.828  50.762  17.617  1.00  0.00    +0.163 HD
BRANCH  17  19
ATOM     19  C   UNL     1      46.614  48.988  16.726  1.00  0.00    +0.082 C 
ATOM     20  C   UNL     1      47.199  48.107  17.825  1.00  0.00    +0.025 C 
ATOM     21  C   UNL     1      45.194  48.444  16.589  1.00  0.00    +0.025 C 
ATOM     22  C   UNL     1      46.049  47.878  18.803  1.00  0.00    +0.002 C 
ATOM     23  C   UNL     1      44.762  48.143  18.021  1.00  0.00    +0.002 C 
ENDBRANCH  17  19
ENDBRANCH  14  15
ENDBRANCH  13  14
ENDBRANCH   3  13
TORSDOF 10
ENDMDL
MODEL 5
REMARK VINA RESULT:    -6.228      1.952      2.741
REMARK INTER + INTRA:         -10.451
REMARK INTER:                  -9.792
REMARK INTRA:                  -0.659
REMARK UNBOUND:                -0.764
REMARK SMILES CCCN(CCO)C(=O)NCCC(=O)NC1CCCC1
REMARK SMILES IDX 8 1 9 2 10 3 4 5 3 6 2 7 1 8 5 9 6 10 7 11 11 13 12 14 13 15
REMARK SMILES IDX 14 16 15 17 16 19 17 20 20 21 18 22 19 23
REMARK H PARENT 10 4 7 12 15 18
ROOT
ATOM      1  C   UNL     1      51.019  54.407  19.305  1.00  0.00    +0.317 C 
ATOM      2  O   UNL     1      52.111  54.481  18.749  1.00  0.00    -0.249 OA
ATOM      3  N   UNL     1      50.271  53.256  19.291  1.00  0.00    -0.337 N 
ATOM      4  H   UNL     1      49.279  53.423  19.236  1.00  0.00    +0.165 HD
ENDROOT
BRANCH   1   5
ATOM      5  N   UNL     1      50.456  55.468  19.995  1.00  0.00    -0.323 N 
BRANCH   5   6
ATOM      6  C   UNL     1      49.026  55.635  20.287  1.00  0.00    +0.121 C 
BRANCH   6   7
ATOM      7  C   UNL     1      48.476  56.996  19.858  1.00  0.00    +0.018 C 
ATOM      8  C   UNL     1      47.955  57.826  21.022  1.00  0.00    +0.006 C 
ENDBRANCH   6   7
ENDBRANCH   5   6
BRANCH   5   9
ATOM      9  C   UNL     1      51.378  56.425  20.614  1.00  0.00    +0.149 C 
BRANCH   9  10
ATOM     10  C   UNL     1      51.413  56.331  22.143  1.00  0.00    +0.177 C 
BRANCH  10  11
ATOM     11  O   UNL     1      52.752  56.418  22.623  1.00  0.00    -0.395 OA
ATOM     12  H   UNL     1      52.974  57.361  22.707  1.00  0.00    +0.210 HD
ENDBRANCH  10  11
ENDBRANCH   9  10
ENDBRANCH   5   9
ENDBRANCH   1   5
BRANCH   3  13
ATOM     13  C   UNL     1      50.725  52.086  18.553  1.00  0.00    +0.127 C 
BRANCH  13  14
ATOM     14  C   UNL     1      51.310  51.007  19.455  1.00  0.00    +0.121 C 
BRANCH  14  15
ATOM     15  C   UNL     1      50.455  49.760  19.435  1.00  0.00    +0.221 C 
ATOM     16  O   UNL     1      50.435  48.935  20.341  1.00  0.00    -0.275 OA
ATOM     17  N   UNL     1      49.721  49.632  18.273  1.00  0.00    -0.353 N 
ATOM     18  H   UNL     1      49.897  50.284  17.518  1.00  0.00    +0.163 HD
BRANCH  17  19
ATOM     19  C   UNL     1      48.910  48.455  18.007  1.00  0.00    +0.082 C 
ATOM     20  C   UNL     1      47.489  48.624  18.534  1.00  0.00    +0.025 C 
ATOM     21  C   UNL     1      48.684  48.248  16.512  1.00  0.00    +0.025 C 
ATOM     22  C   UNL     1      46.756  49.412  17.450  1.00  0.00    +0.002 C 
ATOM     23  C   UNL     1      47.552  49.209  16.161  1.00  0.00    +0.002 C 
ENDBRANCH  17  19
ENDBRANCH  14  15
ENDBRANCH  13  14
ENDBRANCH   3  13
TORSDOF 10
ENDMDL
