MODEL 1
REMARK VINA RESULT:    -7.147      0.000      0.000
REMARK INTER + INTRA:         -11.641
REMARK INTER:                 -10.698
REMARK INTRA:                  -0.942
REMARK UNBOUND:                -0.942
REMARK SMILES C[C@@H](CC(=O)NCCCS(N)(=O)=O)NC(=O)C1CCCC1
REMARK SMILES IDX 7 1 6 2 4 3 5 4 3 6 2 7 1 8 14 9 15 10 16 11 17 13 18 14
REMARK SMILES IDX 21 15 19 16 20 17 8 18 9 19 10 20 12 21 13 22 11 23
REMARK H PARENT 6 5 14 12 11 24 11 25
ROOT
ATOM      1  C   UNL     1      51.771  55.468  19.380  1.00  0.00    +0.117 C 
ENDROOT
BRANCH   1   2
ATOM      2  N   UNL     1      51.680  54.423  20.382  1.00  0.00    -0.356 N 
ATOM      3  C   UNL     1      50.698  53.452  20.324  1.00  0.00    +0.222 C 
ATOM      4  O   UNL     1      49.796  53.463  19.495  1.00  0.00    -0.275 OA
ATOM      5  H   UNL     1      52.485  54.260  20.975  1.00  0.00    +0.163 HD
BRANCH   3   6
ATOM      6  C   UNL     1      50.844  52.405  21.411  1.00  0.00    +0.124 C 
BRANCH   6   7
ATOM      7  C   UNL     1      51.205  51.017  20.864  1.00  0.00    +0.088 C 
ATOM      8  C   UNL     1      52.676  50.929  20.449  1.00  0.00    +0.031 C 
BRANCH   7   9
ATOM      9  N   UNL     1      50.370  50.688  19.704  1.00  0.00    -0.353 N 
ATOM     10  C   UNL     1      49.923  49.405  19.461  1.00  0.00    +0.223 C 
ATOM     11  O   UNL     1      50.203  48.454  20.180  1.00  0.00    -0.275 OA
ATOM     12  H   UNL     1      50.052  51.439  19.105  1.00  0.00    +0.163 HD
BRANCH  10  13
ATOM     13  C   UNL     1      49.071  49.293  18.202  1.00  0.00    +0.078 C 
ATOM     14  C   UNL     1      49.059  50.594  17.382  1.00  0.00    +0.013 C 
ATOM     15  C   UNL     1      47.599  48.977  18.490  1.00  0.00    +0.013 C 
ATOM     16  C   UNL     1      47.596  51.005  17.260  1.00  0.00    +0.001 C 
ATOM     17  C   UNL     1      46.834  49.700  17.394  1.00  0.00    +0.001 C 
ENDBRANCH  10  13
ENDBRANCH   7   9
ENDBRANCH   6   7
ENDBRANCH   3   6
ENDBRANCH   1   2
BRANCH   1  18
ATOM     18  C   UNL     1      51.963  56.843  20.019  1.00  0.00    +0.039 C 
BRANCH  18  19
ATOM     19  C   UNL     1      52.610  56.786  21.396  1.00  0.00    +0.155 C 
BRANCH  19  20
ATOM     20  S   UNL     1      53.923  57.971  21.661  1.00  0.00    +0.209 S 
ATOM     21  O   UNL     1      54.307  58.545  20.394  1.00  0.00    -0.213 OA
ATOM     22  O   UNL     1      54.896  57.440  22.585  1.00  0.00    -0.213 OA
BRANCH  20  23
ATOM     23  N   UNL     1      53.150  59.208  22.483  1.00  0.00    -0.229 NA
ATOM     24  H   UNL     1      53.223  60.076  21.948  1.00  0.00    +0.137 HD
ATOM     25  H   UNL     1      53.527  59.289  23.429  1.00  0.00    +0.137 HD
ENDBRANCH  20  23
ENDBRANCH  19  20
ENDBRANCH  18  19
ENDBRANCH   1  18
TORSDOF 9
ENDMDL
MODEL 2
REMARK VINA RESULT:    -6.863      3.435      7.568
REMARK INTER + INTRA:         -11.215
REMARK INTER:                 -10.530
REMARK INTRA:                  -0.685
REMARK UNBOUND:                -0.942
REMARK SMILES C[C@@H](CC(=O)NCCCS(N)(=O)=O)NC(=O)C1CCCC1
REMARK SMILES IDX 7 1 6 2 4 3 5 4 3 6 2 7 1 8 14 9 15 10 16 11 17 13 18 14
REMARK SMILES IDX 21 15 19 16 20 17 8 18 9 19 10 20 12 21 13 22 11 23
REMARK H PARENT 6 5 14 12 11 24 11 25
ROOT
ATOM      1  C   UNL     1      49.982  49.261  19.241  1.00  0.00    +0.117 C 
ENDROOT
BRANCH   1   2
ATOM      2  N   UNL     1      50.579  50.582  19.296  1.00  0.00    -0.356 N 
ATOM      3  C   UNL     1      51.901  50.762  19.657  1.00  0.00    +0.222 C 
ATOM      4  O   UNL     1      52.618  49.846  20.042  1.00  0.00    -0.275 OA
ATOM      5  H   UNL     1      50.099  51.341  18.827  1.00  0.00    +0.163 HD
BRANCH   3   6
ATOM      6  C   UNL     1      52.345  52.208  19.555  1.00  0.00    +0.124 C 
BRANCH   6   7
ATOM      7  C   UNL     1      52.030  53.024  20.816  1.00  0.00    +0.088 C 
ATOM      8  C   UNL     1      51.217  52.217  21.832  1.00  0.00    +0.031 C 
BRANCH   7   9
ATOM      9  N   UNL     1      51.282  54.236  20.473  1.00  0.00    -0.353 N 
ATOM     10  C   UNL     1      51.467  55.429  21.141  1.00  0.00    +0.223 C 
ATOM     11  O   UNL     1      52.252  55.555  22.074  1.00  0.00    -0.275 OA
ATOM     12  H   UNL     1      50.663  54.215  19.672  1.00  0.00    +0.163 HD
BRANCH  10  13
ATOM     13  C   UNL     1      50.585  56.557  20.618  1.00  0.00    +0.078 C 
ATOM     14  C   UNL     1      50.554  57.767  21.567  1.00  0.00    +0.013 C 
ATOM     15  C   UNL     1      49.121  56.146  20.429  1.00  0.00    +0.013 C 
ATOM     16  C   UNL     1      49.089  57.987  21.923  1.00  0.00    +0.001 C 
ATOM     17  C   UNL     1      48.330  57.404  20.746  1.00  0.00    +0.001 C 
ENDBRANCH  10  13
ENDBRANCH   7   9
ENDBRANCH   6   7
ENDBRANCH   3   6
ENDBRANCH   1   2
BRANCH   1  18
ATOM     18  C   UNL     1      48.654  49.277  18.483  1.00  0.00    +0.039 C 
BRANCH  18  19
ATOM     19  C   UNL     1      48.800  48.964  17.000  1.00  0.00    +0.155 C 
BRANCH  19  20
ATOM     20  S   UNL     1      49.287  50.351  15.981  1.00  0.00    +0.209 S 
ATOM     21  O   UNL     1      48.988  51.579  16.679  1.00  0.00    -0.213 OA
ATOM     22  O   UNL     1      48.883  50.133  14.614  1.00  0.00    -0.213 OA
BRANCH  20  23
ATOM     23  N   UNL     1      50.957  50.247  15.980  1.00  0.00    -0.229 NA
ATOM     24  H   UNL     1      51.310  50.331  16.936  1.00  0.00    +0.137 HD
ATOM     25  H   UNL     1      51.352  50.944  15.347  1.00  0.00    +0.137 HD
ENDBRANCH  20  23
ENDBRANCH  19  20
ENDBRANCH  18  19
ENDBRANCH   1  18
TORSDOF 9
ENDMDL
MODEL 3
REMARK VINA RESULT:    -6.751      4.505      8.462
REMARK INTER + INTRA:         -11.047
REMARK INTER:                 -10.060
REMARK INTRA:                  -0.987
REMARK UNBOUND:                -0.942
REMARK SMILES C[C@@H](CC(=O)NCCCS(N)(=O)=O)NC(=O)C1CCCC1
REMARK SMILES IDX 7 1 6 2 4 3 5 4 3 6 2 7 1 8 14 9 15 10 16 11 17 13 18 14
REMARK SMILES IDX 21 15 19 16 20 17 8 18 9 19 10 20 12 21 13 22 11 23
REMARK H PARENT 6 5 14 12 11 24 11 25
ROOT
ATOM      1  C   UNL     1      48.887  48.595  16.273  1.00  0.00    +0.117 C 
ENDROOT
BRANCH   1   2
ATOM      2  N   UNL     1      49.700  49.295  17.249  1.00  0.00    -0.356 N 
ATOM      3  C   UNL     1      49.463  50.619  17.568  1.00  0.00    +0.222 C 
ATOM      4  O   UNL     1      48.631  51.307  16.987  1.00  0.00    -0.275 OA
ATOM      5  H   UNL     1      50.272  48.743  17.877  1.00  0.00    +0.163 HD
BRANCH   3   6
ATOM      6  C   UNL     1      50.363  51.125  18.678  1.00  0.00    +0.124 C 
BRANCH   6   7
ATOM      7  C   UNL     1      50.863  52.557  18.442  1.00  0.00    +0.088 C 
ATOM      8  C   UNL     1      52.391  52.645  18.489  1.00  0.00    +0.031 C 
BRANCH   7   9
ATOM      9  N   UNL     1      50.310  53.468  19.448  1.00  0.00    -0.353 N 
ATOM     10  C   UNL     1      49.382  54.439  19.129  1.00  0.00    +0.223 C 
ATOM     11  O   UNL     1      48.971  54.619  17.989  1.00  0.00    -0.275 OA
ATOM     12  H   UNL     1      50.561  53.331  20.419  1.00  0.00    +0.163 HD
BRANCH  10  13
ATOM     13  C   UNL     1      48.944  55.271  20.329  1.00  0.00    +0.078 C 
ATOM     14  C   UNL     1      47.941  56.373  19.945  1.00  0.00    +0.013 C 
ATOM     15  C   UNL     1      50.103  55.995  21.023  1.00  0.00    +0.013 C 
ATOM     16  C   UNL     1      48.568  57.689  20.390  1.00  0.00    +0.001 C 
ATOM     17  C   UNL     1      49.493  57.292  21.525  1.00  0.00    +0.001 C 
ENDBRANCH  10  13
ENDBRANCH   7   9
ENDBRANCH   6   7
ENDBRANCH   3   6
ENDBRANCH   1   2
BRANCH   1  18
ATOM     18  C   UNL     1      48.434  47.231  16.795  1.00  0.00    +0.039 C 
BRANCH  18  19
ATOM     19  C   UNL     1      46.922  47.098  16.907  1.00  0.00    +0.155 C 
BRANCH  19  20
ATOM     20  S   UNL     1      46.166  48.120  18.166  1.00  0.00    +0.209 S 
ATOM     21  O   UNL     1      45.284  49.073  17.537  1.00  0.00    -0.213 OA
ATOM     22  O   UNL     1      47.152  48.520  19.141  1.00  0.00    -0.213 OA
BRANCH  20  23
ATOM     23  N   UNL     1      45.156  47.048  18.961  1.00  0.00    -0.229 NA
ATOM     24  H   UNL     1      45.622  46.144  19.062  1.00  0.00    +0.137 HD
ATOM     25  H   UNL     1      44.261  46.984  18.474  1.00  0.00    +0.137 HD
ENDBRANCH  20  23
ENDBRANCH  19  20
ENDBRANCH  18  19
ENDBRANCH   1  18
TORSDOF 9
ENDMDL
MODEL 4
REMARK VINA RESULT:    -6.677      2.273      2.602
REMARK INTER + INTRA:         -10.937
REMARK INTER:                  -9.939
REMARK INTRA:                  -0.998
REMARK UNBOUND:                -0.942
REMARK SMILES C[C@@H](CC(=O)NCCCS(N)(=O)=O)NC(=O)C1CCCC1
REMARK SMILES IDX 7 1 6 2 4 3 5 4 3 6 2 7 1 8 14 9 15 10 16 11 17 13 18 14
REMARK SMILES IDX 21 15 19 16 20 17 8 18 9 19 10 20 12 21 13 22 11 23
REMARK H PARENT 6 5 14 12 11 24 11 25
ROOT
ATOM      1  C   UNL     1      50.615  54.367  18.860  1.00  0.00    +0.117 C 
ENDROOT
BRANCH   1   2
ATOM      2  N   UNL     1      50.783  52.929  18.772  1.00  0.00    -0.356 N 
ATOM      3  C   UNL     1      51.992  52.365  18.409  1.00  0.00    +0.222 C 
ATOM      4  O   UNL     1      52.957  53.029  18.048  1.00  0.00    -0.275 OA
ATOM      5  H   UNL     1      50.092  52.340  19.221  1.00  0.00    +0.163 HD
BRANCH   3   6
ATOM      6  C   UNL     1      51.976  50.851  18.474  1.00  0.00    +0.124 C 
BRANCH   6   7
ATOM      7  C   UNL     1      50.786  50.296  19.270  1.00  0.00    +0.088 C 
ATOM      8  C   UNL     1      51.238  49.498  20.496  1.00  0.00    +0.031 C 
BRANCH   7   9
ATOM      9  N   UNL     1      49.960  49.430  18.425  1.00  0.00    -0.353 N 
ATOM     10  C   UNL     1      48.865  49.905  17.732  1.00  0.00    +0.223 C 
ATOM     11  O   UNL     1      48.498  51.073  17.787  1.00  0.00    -0.275 OA
ATOM     12  H   UNL     1      50.246  48.468  18.287  1.00  0.00    +0.163 HD
BRANCH  10  13
ATOM     13  C   UNL     1      48.154  48.831  16.916  1.00  0.00    +0.078 C 
ATOM     14  C   UNL     1      48.719  48.704  15.491  1.00  0.00    +0.013 C 
ATOM     15  C   UNL     1      46.654  49.094  16.741  1.00  0.00    +0.013 C 
ATOM     16  C   UNL     1      47.545  48.937  14.548  1.00  0.00    +0.001 C 
ATOM     17  C   UNL     1      46.331  48.537  15.365  1.00  0.00    +0.001 C 
ENDBRANCH  10  13
ENDBRANCH   7   9
ENDBRANCH   6   7
ENDBRANCH   3   6
ENDBRANCH   1   2
BRANCH   1  18
ATOM     18  C   UNL     1      50.128  54.791  20.246  1.00  0.00    +0.039 C 
BRANCH  18  19
ATOM     19  C   UNL     1      50.559  56.198  20.634  1.00  0.00    +0.155 C 
BRANCH  19  20
ATOM     20  S   UNL     1      52.094  56.291  21.547  1.00  0.00    +0.209 S 
ATOM     21  O   UNL     1      53.199  56.286  20.618  1.00  0.00    -0.213 OA
ATOM     22  O   UNL     1      52.051  55.407  22.687  1.00  0.00    -0.213 OA
BRANCH  20  23
ATOM     23  N   UNL     1      52.061  57.841  22.178  1.00  0.00    -0.229 NA
ATOM     24  H   UNL     1      52.194  58.522  21.427  1.00  0.00    +0.137 HD
ATOM     25  H   UNL     1      52.752  57.931  22.924  1.00  0.00    +0.137 HD
ENDBRANCH  20  23
ENDBRANCH  19  20
ENDBRANCH  18  19
ENDBRANCH   1  18
TORSDOF 9
ENDMDL
MODEL 5
REMARK VINA RESULT:    -6.639      3.744      6.864
REMARK INTER + INTRA:         -10.880
REMARK INTER:                  -9.784
REMARK INTRA:                  -1.096
REMARK UNBOUND:                -0.942
REMARK SMILES C[C@@H](CC(=O)NCCCS(N)(=O)=O)NC(=O)C1CCCC1
REMARK SMILES IDX 7 1 6 2 4 3 5 4 3 6 2 7 1 8 14 9 15 10 16 11 17 13 18 14
REMARK SMILES IDX 21 15 19 16 20 17 8 18 9 19 10 20 12 21 13 22 11 23
REMARK H PARENT 6 5 14 12 11 24 11 25
ROOT
ATOM      1  C   UNL     1      51.689  51.154  21.619  1.00  0.00    +0.117 C 
ENDROOT
BRANCH   1   2
ATOM      2  N   UNL     1      51.981  52.514  22.031  1.00  0.00    -0.356 N 
ATOM      3  C   UNL     1      51.140  53.562  21.707  1.00  0.00    +0.222 C 
ATOM      4  O   UNL     1      50.162  53.433  20.980  1.00  0.00    -0.275 OA
ATOM      5  H   UNL     1      52.662  52.652  22.768  1.00  0.00    +0.163 HD
BRANCH   3   6
ATOM      6  C   UNL     1      51.581  54.877  22.318  1.00  0.00    +0.124 C 
BRANCH   6   7
ATOM      7  C   UNL     1      51.633  56.026  21.301  1.00  0.00    +0.088 C 
ATOM      8  C   UNL     1      52.509  57.183  21.787  1.00  0.00    +0.031 C 
BRANCH   7   9
ATOM      9  N   UNL     1      50.286  56.538  21.034  1.00  0.00    -0.353 N 
ATOM     10  C   UNL     1      49.714  56.482  19.779  1.00  0.00    +0.223 C 
ATOM     11  O   UNL     1      50.293  56.021  18.803  1.00  0.00    -0.275 OA
ATOM     12  H   UNL     1      49.731  56.875  21.810  1.00  0.00    +0.163 HD
BRANCH  10  13
ATOM     13  C   UNL     1      48.308  57.071  19.731  1.00  0.00    +0.078 C 
ATOM     14  C   UNL     1      47.927  57.566  18.325  1.00  0.00    +0.013 C 
ATOM     15  C   UNL     1      48.123  58.278  20.656  1.00  0.00    +0.013 C 
ATOM     16  C   UNL     1      47.576  59.042  18.478  1.00  0.00    +0.001 C 
ATOM     17  C   UNL     1      47.133  59.169  19.924  1.00  0.00    +0.001 C 
ENDBRANCH  10  13
ENDBRANCH   7   9
ENDBRANCH   6   7
ENDBRANCH   3   6
ENDBRANCH   1   2
BRANCH   1  18
ATOM     18  C   UNL     1      52.699  50.652  20.586  1.00  0.00    +0.039 C 
BRANCH  18  19
ATOM     19  C   UNL     1      52.059  50.225  19.273  1.00  0.00    +0.155 C 
BRANCH  19  20
ATOM     20  S   UNL     1      51.939  51.513  18.038  1.00  0.00    +0.209 S 
ATOM     21  O   UNL     1      53.033  52.439  18.212  1.00  0.00    -0.213 OA
ATOM     22  O   UNL     1      50.573  51.961  17.914  1.00  0.00    -0.213 OA
BRANCH  20  23
ATOM     23  N   UNL     1      52.279  50.701  16.615  1.00  0.00    -0.229 NA
ATOM     24  H   UNL     1      51.420  50.578  16.074  1.00  0.00    +0.137 HD
ATOM     25  H   UNL     1      52.751  49.819  16.819  1.00  0.00    +0.137 HD
ENDBRANCH  20  23
ENDBRANCH  19  20
ENDBRANCH  18  19
ENDBRANCH   1  18
TORSDOF 9
ENDMDL
