MODEL 1
REMARK VINA RESULT:    -9.646      0.000      0.000
REMARK INTER + INTRA:         -16.316
REMARK INTER:                 -15.284
REMARK INTRA:                  -1.032
REMARK UNBOUND:                -1.032
REMARK SMILES O=C(CNc1ccc(C(=O)NCc2ccco2)cc1)Nc1ccc(C(=O)NC[C@@H]2CCCO2)cc1
REMARK SMILES IDX 3 1 4 2 5 4 8 5 7 6 18 7 6 8 19 9 9 10 11 11 10 12 12 14
REMARK SMILES IDX 13 15 15 16 14 17 16 18 17 19 2 20 1 21 20 22 21 24 22 25
REMARK SMILES IDX 35 26 23 27 34 28 24 29 25 30 26 31 27 32 28 34 29 35 30 36
REMARK SMILES IDX 33 37 31 38 32 39
REMARK H PARENT 4 3 11 13 20 23 27 33
ROOT
ATOM      1  C   UNL     1      51.789  52.972  21.859  1.00  0.00    +0.213 C 
ENDROOT
BRANCH   1   2
ATOM      2  N   UNL     1      52.350  52.092  20.805  1.00  0.00    -0.376 N 
ATOM      3  H   UNL     1      52.802  52.669  20.094  1.00  0.00    +0.161 HD
BRANCH   2   4
ATOM      4  C   UNL     1      51.441  51.208  20.194  1.00  0.00    +0.034 A 
ATOM      5  C   UNL     1      49.535  49.428  19.108  1.00  0.00    +0.039 A 
ATOM      6  C   UNL     1      49.776  50.661  18.499  1.00  0.00    +0.016 A 
ATOM      7  C   UNL     1      50.207  49.100  20.289  1.00  0.00    +0.016 A 
ATOM      8  C   UNL     1      50.720  51.542  19.040  1.00  0.00    +0.026 A 
ATOM      9  C   UNL     1      51.136  49.995  20.833  1.00  0.00    +0.026 A 
BRANCH   5  10
ATOM     10  C   UNL     1      48.538  48.512  18.497  1.00  0.00    +0.251 C 
ATOM     11  N   UNL     1      49.028  47.660  17.534  1.00  0.00    -0.345 N 
ATOM     12  O   UNL     1      47.359  48.571  18.829  1.00  0.00    -0.269 OA
ATOM     13  H   UNL     1      49.962  47.802  17.172  1.00  0.00    +0.164 HD
BRANCH  11  14
ATOM     14  C   UNL     1      48.135  46.807  16.779  1.00  0.00    +0.191 C 
BRANCH  14  15
ATOM     15  C   UNL     1      47.537  47.605  15.679  1.00  0.00    +0.122 A 
ATOM     16  C   UNL     1      46.363  48.613  14.056  1.00  0.00    +0.042 A 
ATOM     17  C   UNL     1      46.305  47.605  15.054  1.00  0.00    +0.047 A 
ATOM     18  C   UNL     1      47.624  49.160  14.136  1.00  0.00    +0.195 A 
ATOM     19  O   UNL     1      48.343  48.554  15.116  1.00  0.00    -0.467 OA
ENDBRANCH  14  15
ENDBRANCH  11  14
ENDBRANCH   5  10
ENDBRANCH   2   4
ENDBRANCH   1   2
BRANCH   1  20
ATOM     20  C   UNL     1      51.464  54.354  21.273  1.00  0.00    +0.243 C 
ATOM     21  O   UNL     1      52.330  55.214  21.146  1.00  0.00    -0.273 OA
ATOM     22  N   UNL     1      50.135  54.449  20.888  1.00  0.00    -0.325 N 
ATOM     23  H   UNL     1      49.589  53.611  21.086  1.00  0.00    +0.169 HD
BRANCH  22  24
ATOM     24  C   UNL     1      49.482  55.522  20.258  1.00  0.00    +0.041 A 
ATOM     25  C   UNL     1      49.088  55.516  18.918  1.00  0.00    +0.027 A 
ATOM     26  C   UNL     1      49.205  56.650  21.040  1.00  0.00    +0.027 A 
ATOM     27  C   UNL     1      48.430  56.620  18.362  1.00  0.00    +0.016 A 
ATOM     28  C   UNL     1      48.543  57.754  20.490  1.00  0.00    +0.016 A 
ATOM     29  C   UNL     1      48.162  57.747  19.145  1.00  0.00    +0.039 A 
BRANCH  29  30
ATOM     30  C   UNL     1      47.460  58.943  18.603  1.00  0.00    +0.251 C 
ATOM     31  O   UNL     1      47.591  59.249  17.422  1.00  0.00    -0.269 OA
ATOM     32  N   UNL     1      46.655  59.632  19.484  1.00  0.00    -0.349 N 
ATOM     33  H   UNL     1      46.487  59.261  20.409  1.00  0.00    +0.163 HD
BRANCH  32  34
ATOM     34  C   UNL     1      45.860  60.777  19.070  1.00  0.00    +0.148 C 
BRANCH  34  35
ATOM     35  C   UNL     1      46.540  62.124  19.367  1.00  0.00    +0.137 C 
ATOM     36  C   UNL     1      45.596  63.224  19.833  1.00  0.00    +0.036 C 
ATOM     37  O   UNL     1      47.147  62.606  18.146  1.00  0.00    -0.376 OA
ATOM     38  C   UNL     1      45.192  63.877  18.531  1.00  0.00    +0.031 C 
ATOM     39  C   UNL     1      46.491  63.825  17.762  1.00  0.00    +0.160 C 
ENDBRANCH  34  35
ENDBRANCH  32  34
ENDBRANCH  29  30
ENDBRANCH  22  24
ENDBRANCH   1  20
TORSDOF 10
ENDMDL
MODEL 2
REMARK VINA RESULT:    -9.178      1.648      2.207
REMARK INTER + INTRA:         -15.575
REMARK INTER:                 -14.514
REMARK INTRA:                  -1.061
REMARK UNBOUND:                -1.032
REMARK SMILES O=C(CNc1ccc(C(=O)NCc2ccco2)cc1)Nc1ccc(C(=O)NC[C@@H]2CCCO2)cc1
REMARK SMILES IDX 3 1 4 2 5 4 8 5 7 6 18 7 6 8 19 9 9 10 11 11 10 12 12 14
REMARK SMILES IDX 13 15 15 16 14 17 16 18 17 19 2 20 1 21 20 22 21 24 22 25
REMARK SMILES IDX 35 26 23 27 34 28 24 29 25 30 26 31 27 32 28 34 29 35 30 36
REMARK SMILES IDX 33 37 31 38 32 39
REMARK H PARENT 4 3 11 13 20 23 27 33
ROOT
ATOM      1  C   UNL     1      51.278  54.098  21.728  1.00  0.00    +0.213 C 
ENDROOT
BRANCH   1   2
ATOM      2  N   UNL     1      52.013  53.313  20.706  1.00  0.00    -0.376 N 
ATOM      3  H   UNL     1      52.508  53.955  20.085  1.00  0.00    +0.161 HD
BRANCH   2   4
ATOM      4  C   UNL     1      51.240  52.415  19.947  1.00  0.00    +0.034 A 
ATOM      5  C   UNL     1      49.775  50.658  18.292  1.00  0.00    +0.039 A 
ATOM      6  C   UNL     1      50.435  50.175  19.423  1.00  0.00    +0.016 A 
ATOM      7  C   UNL     1      49.884  52.010  17.954  1.00  0.00    +0.016 A 
ATOM      8  C   UNL     1      51.163  51.048  20.240  1.00  0.00    +0.026 A 
ATOM      9  C   UNL     1      50.628  52.872  18.768  1.00  0.00    +0.026 A 
BRANCH   5  10
ATOM     10  C   UNL     1      49.000  49.705  17.455  1.00  0.00    +0.251 C 
ATOM     11  N   UNL     1      48.747  48.480  18.032  1.00  0.00    -0.345 N 
ATOM     12  O   UNL     1      48.661  50.013  16.319  1.00  0.00    -0.269 OA
ATOM     13  H   UNL     1      49.223  48.225  18.887  1.00  0.00    +0.164 HD
BRANCH  11  14
ATOM     14  C   UNL     1      48.110  47.425  17.274  1.00  0.00    +0.191 C 
BRANCH  14  15
ATOM     15  C   UNL     1      46.638  47.585  17.386  1.00  0.00    +0.122 A 
ATOM     16  C   UNL     1      44.467  47.843  17.886  1.00  0.00    +0.042 A 
ATOM     17  C   UNL     1      45.772  47.785  18.443  1.00  0.00    +0.047 A 
ATOM     18  C   UNL     1      44.622  47.676  16.528  1.00  0.00    +0.195 A 
ATOM     19  O   UNL     1      45.934  47.518  16.216  1.00  0.00    -0.467 OA
ENDBRANCH  14  15
ENDBRANCH  11  14
ENDBRANCH   5  10
ENDBRANCH   2   4
ENDBRANCH   1   2
BRANCH   1  20
ATOM     20  C   UNL     1      50.916  55.482  21.168  1.00  0.00    +0.243 C 
ATOM     21  O   UNL     1      51.744  56.386  21.116  1.00  0.00    -0.273 OA
ATOM     22  N   UNL     1      49.606  55.527  20.715  1.00  0.00    -0.325 N 
ATOM     23  H   UNL     1      49.093  54.657  20.856  1.00  0.00    +0.169 HD
BRANCH  22  24
ATOM     24  C   UNL     1      48.935  56.588  20.084  1.00  0.00    +0.041 A 
ATOM     25  C   UNL     1      48.676  56.640  18.714  1.00  0.00    +0.027 A 
ATOM     26  C   UNL     1      48.495  57.640  20.898  1.00  0.00    +0.027 A 
ATOM     27  C   UNL     1      47.990  57.728  18.157  1.00  0.00    +0.016 A 
ATOM     28  C   UNL     1      47.804  58.725  20.347  1.00  0.00    +0.016 A 
ATOM     29  C   UNL     1      47.558  58.778  18.973  1.00  0.00    +0.039 A 
BRANCH  29  30
ATOM     30  C   UNL     1      46.820  59.953  18.431  1.00  0.00    +0.251 C 
ATOM     31  O   UNL     1      46.119  59.830  17.431  1.00  0.00    -0.269 OA
ATOM     32  N   UNL     1      46.951  61.133  19.130  1.00  0.00    -0.349 N 
ATOM     33  H   UNL     1      47.439  61.143  20.015  1.00  0.00    +0.163 HD
BRANCH  32  34
ATOM     34  C   UNL     1      46.231  62.339  18.751  1.00  0.00    +0.148 C 
BRANCH  34  35
ATOM     35  C   UNL     1      44.983  62.593  19.613  1.00  0.00    +0.137 C 
ATOM     36  C   UNL     1      43.788  61.711  19.276  1.00  0.00    +0.036 C 
ATOM     37  O   UNL     1      44.550  63.955  19.396  1.00  0.00    -0.376 OA
ATOM     38  C   UNL     1      43.063  62.533  18.236  1.00  0.00    +0.031 C 
ATOM     39  C   UNL     1      43.253  63.929  18.780  1.00  0.00    +0.160 C 
ENDBRANCH  34  35
ENDBRANCH  32  34
ENDBRANCH  29  30
ENDBRANCH  22  24
ENDBRANCH   1  20
TORSDOF 10
ENDMDL
MODEL 3
REMARK VINA RESULT:    -8.733      1.762      2.552
REMARK INTER + INTRA:         -14.871
REMARK INTER:                 -13.880
REMARK INTRA:                  -0.991
REMARK UNBOUND:                -1.032
REMARK SMILES O=C(CNc1ccc(C(=O)NCc2ccco2)cc1)Nc1ccc(C(=O)NC[C@@H]2CCCO2)cc1
REMARK SMILES IDX 3 1 4 2 5 4 8 5 7 6 18 7 6 8 19 9 9 10 11 11 10 12 12 14
REMARK SMILES IDX 13 15 15 16 14 17 16 18 17 19 2 20 1 21 20 22 21 24 22 25
REMARK SMILES IDX 35 26 23 27 34 28 24 29 25 30 26 31 27 32 28 34 29 35 30 36
REMARK SMILES IDX 33 37 31 38 32 39
REMARK H PARENT 4 3 11 13 20 23 27 33
ROOT
ATOM      1  C   UNL     1      51.304  54.123  19.093  1.00  0.00    +0.213 C 
ENDROOT
BRANCH   1   2
ATOM      2  N   UNL     1      50.311  53.197  19.690  1.00  0.00    -0.376 N 
ATOM      3  H   UNL     1      50.663  52.865  20.590  1.00  0.00    +0.161 HD
BRANCH   2   4
ATOM      4  C   UNL     1      49.933  52.101  18.892  1.00  0.00    +0.034 A 
ATOM      5  C   UNL     1      49.105  49.837  17.421  1.00  0.00    +0.039 A 
ATOM      6  C   UNL     1      48.740  51.119  17.007  1.00  0.00    +0.016 A 
ATOM      7  C   UNL     1      49.842  49.677  18.598  1.00  0.00    +0.016 A 
ATOM      8  C   UNL     1      49.150  52.239  17.739  1.00  0.00    +0.026 A 
ATOM      9  C   UNL     1      50.233  50.802  19.333  1.00  0.00    +0.026 A 
BRANCH   5  10
ATOM     10  C   UNL     1      48.665  48.672  16.611  1.00  0.00    +0.251 C 
ATOM     11  N   UNL     1      47.646  47.923  17.155  1.00  0.00    -0.345 N 
ATOM     12  O   UNL     1      49.224  48.407  15.554  1.00  0.00    -0.269 OA
ATOM     13  H   UNL     1      47.369  48.082  18.115  1.00  0.00    +0.164 HD
BRANCH  11  14
ATOM     14  C   UNL     1      47.213  46.695  16.523  1.00  0.00    +0.191 C 
BRANCH  14  15
ATOM     15  C   UNL     1      46.004  46.983  15.710  1.00  0.00    +0.122 A 
ATOM     16  C   UNL     1      44.382  47.605  14.292  1.00  0.00    +0.042 A 
ATOM     17  C   UNL     1      45.773  47.710  14.559  1.00  0.00    +0.047 A 
ATOM     18  C   UNL     1      43.857  46.823  15.295  1.00  0.00    +0.195 A 
ATOM     19  O   UNL     1      44.833  46.442  16.160  1.00  0.00    -0.467 OA
ENDBRANCH  14  15
ENDBRANCH  11  14
ENDBRANCH   5  10
ENDBRANCH   2   4
ENDBRANCH   1   2
BRANCH   1  20
ATOM     20  C   UNL     1      50.867  55.578  19.314  1.00  0.00    +0.243 C 
ATOM     21  O   UNL     1      51.684  56.462  19.551  1.00  0.00    -0.273 OA
ATOM     22  N   UNL     1      49.497  55.732  19.159  1.00  0.00    -0.325 N 
ATOM     23  H   UNL     1      49.005  54.861  18.963  1.00  0.00    +0.169 HD
BRANCH  22  24
ATOM     24  C   UNL     1      48.738  56.913  19.219  1.00  0.00    +0.041 A 
ATOM     25  C   UNL     1      48.457  57.600  20.401  1.00  0.00    +0.027 A 
ATOM     26  C   UNL     1      48.257  57.425  18.007  1.00  0.00    +0.027 A 
ATOM     27  C   UNL     1      47.702  58.780  20.381  1.00  0.00    +0.016 A 
ATOM     28  C   UNL     1      47.508  58.607  17.981  1.00  0.00    +0.016 A 
ATOM     29  C   UNL     1      47.218  59.283  19.169  1.00  0.00    +0.039 A 
BRANCH  29  30
ATOM     30  C   UNL     1      46.417  60.537  19.093  1.00  0.00    +0.251 C 
ATOM     31  O   UNL     1      45.196  60.492  19.202  1.00  0.00    -0.269 OA
ATOM     32  N   UNL     1      47.126  61.708  18.933  1.00  0.00    -0.349 N 
ATOM     33  H   UNL     1      48.136  61.695  18.977  1.00  0.00    +0.163 HD
BRANCH  32  34
ATOM     34  C   UNL     1      46.476  63.008  18.912  1.00  0.00    +0.148 C 
BRANCH  34  35
ATOM     35  C   UNL     1      46.059  63.452  17.500  1.00  0.00    +0.137 C 
ATOM     36  C   UNL     1      47.104  64.275  16.758  1.00  0.00    +0.036 C 
ATOM     37  O   UNL     1      44.890  64.295  17.614  1.00  0.00    -0.376 OA
ATOM     38  C   UNL     1      46.743  65.688  17.154  1.00  0.00    +0.031 C 
ATOM     39  C   UNL     1      45.234  65.614  17.162  1.00  0.00    +0.160 C 
ENDBRANCH  34  35
ENDBRANCH  32  34
ENDBRANCH  29  30
ENDBRANCH  22  24
ENDBRANCH   1  20
TORSDOF 10
ENDMDL
MODEL 4
REMARK VINA RESULT:    -8.713      2.176      3.019
REMARK INTER + INTRA:         -14.839
REMARK INTER:                 -14.070
REMARK INTRA:                  -0.769
REMARK UNBOUND:                -1.032
REMARK SMILES O=C(CNc1ccc(C(=O)NCc2ccco2)cc1)Nc1ccc(C(=O)NC[C@@H]2CCCO2)cc1
REMARK SMILES IDX 3 1 4 2 5 4 8 5 7 6 18 7 6 8 19 9 9 10 11 11 10 12 12 14
REMARK SMILES IDX 13 15 15 16 14 17 16 18 17 19 2 20 1 21 20 22 21 24 22 25
REMARK SMILES IDX 35 26 23 27 34 28 24 29 25 30 26 31 27 32 28 34 29 35 30 36
REMARK SMILES IDX 33 37 31 38 32 39
REMARK H PARENT 4 3 11 13 20 23 27 33
ROOT
ATOM      1  C   UNL     1      51.660  51.135  17.865  1.00  0.00    +0.213 C 
ENDROOT
BRANCH   1   2
ATOM      2  N   UNL     1      50.851  50.240  18.727  1.00  0.00    -0.376 N 
ATOM      3  H   UNL     1      51.409  49.420  18.973  1.00  0.00    +0.161 HD
BRANCH   2   4
ATOM      4  C   UNL     1      49.611  49.833  18.200  1.00  0.00    +0.034 A 
ATOM      5  C   UNL     1      47.054  49.064  17.281  1.00  0.00    +0.039 A 
ATOM      6  C   UNL     1      47.823  49.971  16.550  1.00  0.00    +0.016 A 
ATOM      7  C   UNL     1      47.537  48.576  18.499  1.00  0.00    +0.016 A 
ATOM      8  C   UNL     1      49.089  50.352  17.009  1.00  0.00    +0.026 A 
ATOM      9  C   UNL     1      48.797  48.976  18.958  1.00  0.00    +0.026 A 
BRANCH   5  10
ATOM     10  C   UNL     1      45.721  48.671  16.757  1.00  0.00    +0.251 C 
ATOM     11  N   UNL     1      45.724  48.075  15.515  1.00  0.00    -0.345 N 
ATOM     12  O   UNL     1      44.707  48.914  17.400  1.00  0.00    -0.269 OA
ATOM     13  H   UNL     1      46.571  48.086  14.961  1.00  0.00    +0.164 HD
BRANCH  11  14
ATOM     14  C   UNL     1      44.483  47.759  14.844  1.00  0.00    +0.191 C 
BRANCH  14  15
ATOM     15  C   UNL     1      44.590  48.186  13.426  1.00  0.00    +0.122 A 
ATOM     16  C   UNL     1      44.415  48.819  11.281  1.00  0.00    +0.042 A 
ATOM     17  C   UNL     1      43.668  48.486  12.442  1.00  0.00    +0.047 A 
ATOM     18  C   UNL     1      45.741  48.701  11.632  1.00  0.00    +0.195 A 
ATOM     19  O   UNL     1      45.856  48.316  12.930  1.00  0.00    -0.467 OA
ENDBRANCH  14  15
ENDBRANCH  11  14
ENDBRANCH   5  10
ENDBRANCH   2   4
ENDBRANCH   1   2
BRANCH   1  20
ATOM     20  C   UNL     1      51.609  52.573  18.403  1.00  0.00    +0.243 C 
ATOM     21  O   UNL     1      52.597  53.300  18.376  1.00  0.00    -0.273 OA
ATOM     22  N   UNL     1      50.339  52.910  18.846  1.00  0.00    -0.325 N 
ATOM     23  H   UNL     1      49.664  52.150  18.776  1.00  0.00    +0.169 HD
BRANCH  22  24
ATOM     24  C   UNL     1      49.887  54.145  19.342  1.00  0.00    +0.041 A 
ATOM     25  C   UNL     1      50.282  54.685  20.567  1.00  0.00    +0.027 A 
ATOM     26  C   UNL     1      48.998  54.869  18.537  1.00  0.00    +0.027 A 
ATOM     27  C   UNL     1      49.797  55.929  20.990  1.00  0.00    +0.016 A 
ATOM     28  C   UNL     1      48.515  56.116  18.953  1.00  0.00    +0.016 A 
ATOM     29  C   UNL     1      48.904  56.645  20.186  1.00  0.00    +0.039 A 
BRANCH  29  30
ATOM     30  C   UNL     1      48.365  57.974  20.588  1.00  0.00    +0.251 C 
ATOM     31  O   UNL     1      48.558  58.398  21.723  1.00  0.00    -0.269 OA
ATOM     32  N   UNL     1      47.689  58.679  19.615  1.00  0.00    -0.349 N 
ATOM     33  H   UNL     1      47.671  58.336  18.665  1.00  0.00    +0.163 HD
BRANCH  32  34
ATOM     34  C   UNL     1      47.170  60.017  19.851  1.00  0.00    +0.148 C 
BRANCH  34  35
ATOM     35  C   UNL     1      47.183  60.900  18.593  1.00  0.00    +0.137 C 
ATOM     36  C   UNL     1      46.553  62.275  18.774  1.00  0.00    +0.036 C 
ATOM     37  O   UNL     1      46.413  60.238  17.564  1.00  0.00    -0.376 OA
ATOM     38  C   UNL     1      45.110  62.020  18.407  1.00  0.00    +0.031 C 
ATOM     39  C   UNL     1      45.266  61.048  17.261  1.00  0.00    +0.160 C 
ENDBRANCH  34  35
ENDBRANCH  32  34
ENDBRANCH  29  30
ENDBRANCH  22  24
ENDBRANCH   1  20
TORSDOF 10
ENDMDL
MODEL 5
REMARK VINA RESULT:    -8.543      1.929     11.467
REMARK INTER + INTRA:         -14.570
REMARK INTER:                 -13.632
REMARK INTRA:                  -0.938
REMARK UNBOUND:                -1.032
REMARK SMILES O=C(CNc1ccc(C(=O)NCc2ccco2)cc1)Nc1ccc(C(=O)NC[C@@H]2CCCO2)cc1
REMARK SMILES IDX 3 1 4 2 5 4 8 5 7 6 18 7 6 8 19 9 9 10 11 11 10 12 12 14
REMARK SMILES IDX 13 15 15 16 14 17 16 18 17 19 2 20 1 21 20 22 21 24 22 25
REMARK SMILES IDX 35 26 23 27 34 28 24 29 25 30 26 31 27 32 28 34 29 35 30 36
REMARK SMILES IDX 33 37 31 38 32 39
REMARK H PARENT 4 3 11 13 20 23 27 33
ROOT
ATOM      1  C   UNL     1      50.578  56.100  19.947  1.00  0.00    +0.213 C 
ENDROOT
BRANCH   1   2
ATOM      2  N   UNL     1      49.139  56.213  20.287  1.00  0.00    -0.376 N 
ATOM      3  H   UNL     1      48.685  55.313  20.122  1.00  0.00    +0.161 HD
BRANCH   2   4
ATOM      4  C   UNL     1      48.429  57.233  19.624  1.00  0.00    +0.034 A 
ATOM      5  C   UNL     1      47.117  59.383  18.348  1.00  0.00    +0.039 A 
ATOM      6  C   UNL     1      47.509  58.261  17.615  1.00  0.00    +0.016 A 
ATOM      7  C   UNL     1      47.422  59.458  19.709  1.00  0.00    +0.016 A 
ATOM      8  C   UNL     1      48.161  57.198  18.250  1.00  0.00    +0.026 A 
ATOM      9  C   UNL     1      48.090  58.397  20.332  1.00  0.00    +0.026 A 
BRANCH   5  10
ATOM     10  C   UNL     1      46.413  60.486  17.644  1.00  0.00    +0.251 C 
ATOM     11  N   UNL     1      46.704  61.755  18.091  1.00  0.00    -0.345 N 
ATOM     12  O   UNL     1      45.607  60.238  16.755  1.00  0.00    -0.269 OA
ATOM     13  H   UNL     1      47.222  61.873  18.952  1.00  0.00    +0.164 HD
BRANCH  11  14
ATOM     14  C   UNL     1      45.993  62.903  17.571  1.00  0.00    +0.191 C 
BRANCH  14  15
ATOM     15  C   UNL     1      44.702  63.028  18.296  1.00  0.00    +0.122 A 
ATOM     16  C   UNL     1      42.929  63.132  19.664  1.00  0.00    +0.042 A 
ATOM     17  C   UNL     1      44.329  62.900  19.619  1.00  0.00    +0.047 A 
ATOM     18  C   UNL     1      42.540  63.385  18.368  1.00  0.00    +0.195 A 
ATOM     19  O   UNL     1      43.609  63.323  17.531  1.00  0.00    -0.467 OA
ENDBRANCH  14  15
ENDBRANCH  11  14
ENDBRANCH   5  10
ENDBRANCH   2   4
ENDBRANCH   1   2
BRANCH   1  20
ATOM     20  C   UNL     1      50.830  54.815  19.144  1.00  0.00    +0.243 C 
ATOM     21  O   UNL     1      51.954  54.515  18.756  1.00  0.00    -0.273 OA
ATOM     22  N   UNL     1      49.669  54.073  18.984  1.00  0.00    -0.325 N 
ATOM     23  H   UNL     1      48.842  54.512  19.389  1.00  0.00    +0.169 HD
BRANCH  22  24
ATOM     24  C   UNL     1      49.511  52.819  18.369  1.00  0.00    +0.041 A 
ATOM     25  C   UNL     1      50.140  51.652  18.807  1.00  0.00    +0.027 A 
ATOM     26  C   UNL     1      48.657  52.753  17.262  1.00  0.00    +0.027 A 
ATOM     27  C   UNL     1      49.925  50.434  18.150  1.00  0.00    +0.016 A 
ATOM     28  C   UNL     1      48.434  51.537  16.605  1.00  0.00    +0.016 A 
ATOM     29  C   UNL     1      49.075  50.375  17.041  1.00  0.00    +0.039 A 
BRANCH  29  30
ATOM     30  C   UNL     1      48.809  49.104  16.312  1.00  0.00    +0.251 C 
ATOM     31  O   UNL     1      49.109  49.002  15.127  1.00  0.00    -0.269 OA
ATOM     32  N   UNL     1      48.253  48.080  17.049  1.00  0.00    -0.349 N 
ATOM     33  H   UNL     1      48.145  48.181  18.048  1.00  0.00    +0.163 HD
BRANCH  32  34
ATOM     34  C   UNL     1      48.005  46.766  16.479  1.00  0.00    +0.148 C 
BRANCH  34  35
ATOM     35  C   UNL     1      46.514  46.389  16.458  1.00  0.00    +0.137 C 
ATOM     36  C   UNL     1      45.771  46.805  15.194  1.00  0.00    +0.036 C 
ATOM     37  O   UNL     1      45.856  47.069  17.551  1.00  0.00    -0.376 OA
ATOM     38  C   UNL     1      45.271  48.185  15.552  1.00  0.00    +0.031 C 
ATOM     39  C   UNL     1      44.905  47.996  17.006  1.00  0.00    +0.160 C 
ENDBRANCH  34  35
ENDBRANCH  32  34
ENDBRANCH  29  30
ENDBRANCH  22  24
ENDBRANCH   1  20
TORSDOF 10
ENDMDL
