MODEL 1
REMARK VINA RESULT:    -8.199      0.000      0.000
REMARK INTER + INTRA:         -12.893
REMARK INTER:                 -12.034
REMARK INTRA:                  -0.859
REMARK UNBOUND:                -0.859
REMARK SMILES CCCNC(=O)CCNC(=O)Nc1cccc2c1CCN(S(=O)(=O)CC)C2
REMARK SMILES IDX 8 1 7 2 5 3 4 4 6 5 3 7 2 8 1 9 9 10 10 11 11 12 12 13 13 16
REMARK SMILES IDX 14 17 18 18 15 19 17 20 19 21 16 22 27 23 20 24 21 25 22 26
REMARK SMILES IDX 23 27 24 28 25 29 26 30
REMARK H PARENT 4 6 9 14 12 15
ROOT
ATOM      1  C   UNL     1      51.797  55.988  19.342  1.00  0.00    +0.127 C 
ENDROOT
BRANCH   1   2
ATOM      2  C   UNL     1      52.388  56.455  20.667  1.00  0.00    +0.121 C 
BRANCH   2   3
ATOM      3  C   UNL     1      51.299  56.826  21.650  1.00  0.00    +0.221 C 
ATOM      4  N   UNL     1      50.327  57.632  21.097  1.00  0.00    -0.356 N 
ATOM      5  O   UNL     1      51.266  56.420  22.806  1.00  0.00    -0.275 OA
ATOM      6  H   UNL     1      50.397  57.896  20.123  1.00  0.00    +0.163 HD
BRANCH   4   7
ATOM      7  C   UNL     1      49.164  58.057  21.849  1.00  0.00    +0.115 C 
BRANCH   7   8
ATOM      8  C   UNL     1      47.889  57.931  21.021  1.00  0.00    +0.018 C 
ATOM      9  C   UNL     1      47.958  56.752  20.066  1.00  0.00    +0.006 C 
ENDBRANCH   7   8
ENDBRANCH   4   7
ENDBRANCH   2   3
ENDBRANCH   1   2
BRANCH   1  10
ATOM     10  N   UNL     1      52.036  54.575  19.091  1.00  0.00    -0.337 N 
ATOM     11  C   UNL     1      51.158  53.611  19.551  1.00  0.00    +0.319 C 
ATOM     12  O   UNL     1      50.147  53.895  20.178  1.00  0.00    -0.249 OA
ATOM     13  N   UNL     1      51.596  52.354  19.194  1.00  0.00    -0.308 N 
ATOM     14  H   UNL     1      52.998  54.291  18.981  1.00  0.00    +0.165 HD
ATOM     15  H   UNL     1      52.283  52.359  18.458  1.00  0.00    +0.171 HD
BRANCH  13  16
ATOM     16  C   UNL     1      51.040  51.101  19.545  1.00  0.00    +0.046 A 
ATOM     17  C   UNL     1      51.306  50.498  20.780  1.00  0.00    +0.026 A 
ATOM     18  C   UNL     1      50.200  50.432  18.622  1.00  0.00    -0.018 A 
ATOM     19  C   UNL     1      50.730  49.275  21.123  1.00  0.00    +0.003 A 
ATOM     20  C   UNL     1      49.591  49.206  18.988  1.00  0.00    -0.027 A 
ATOM     21  C   UNL     1      49.879  51.011  17.261  1.00  0.00    +0.055 C 
ATOM     22  C   UNL     1      49.874  48.636  20.236  1.00  0.00    +0.005 A 
ATOM     23  C   UNL     1      48.659  48.458  18.054  1.00  0.00    +0.138 C 
ATOM     24  C   UNL     1      49.350  49.972  16.272  1.00  0.00    +0.107 C 
ATOM     25  N   UNL     1      48.204  49.256  16.882  1.00  0.00    -0.197 NA
BRANCH  25  26
ATOM     26  S   UNL     1      47.252  48.341  15.805  1.00  0.00    +0.214 S 
ATOM     27  O   UNL     1      47.350  46.956  16.215  1.00  0.00    -0.212 OA
ATOM     28  O   UNL     1      47.619  48.743  14.464  1.00  0.00    -0.212 OA
BRANCH  26  29
ATOM     29  C   UNL     1      45.592  48.904  16.194  1.00  0.00    +0.151 C 
ATOM     30  C   UNL     1      45.293  48.901  17.678  1.00  0.00    +0.022 C 
ENDBRANCH  26  29
ENDBRANCH  25  26
ENDBRANCH  13  16
ENDBRANCH   1  10
TORSDOF 8
ENDMDL
MODEL 2
REMARK VINA RESULT:    -8.147      2.723      8.328
REMARK INTER + INTRA:         -12.817
REMARK INTER:                 -11.768
REMARK INTRA:                  -1.048
REMARK UNBOUND:                -0.859
REMARK SMILES CCCNC(=O)CCNC(=O)Nc1cccc2c1CCN(S(=O)(=O)CC)C2
REMARK SMILES IDX 8 1 7 2 5 3 4 4 6 5 3 7 2 8 1 9 9 10 10 11 11 12 12 13 13 16
REMARK SMILES IDX 14 17 18 18 15 19 17 20 19 21 16 22 27 23 20 24 21 25 22 26
REMARK SMILES IDX 23 27 24 28 25 29 26 30
REMARK H PARENT 4 6 9 14 12 15
ROOT
ATOM      1  C   UNL     1      48.663  50.058  14.385  1.00  0.00    +0.127 C 
ENDROOT
BRANCH   1   2
ATOM      2  C   UNL     1      47.471  49.211  13.954  1.00  0.00    +0.121 C 
BRANCH   2   3
ATOM      3  C   UNL     1      46.947  48.381  15.105  1.00  0.00    +0.221 C 
ATOM      4  N   UNL     1      45.588  48.518  15.293  1.00  0.00    -0.356 N 
ATOM      5  O   UNL     1      47.651  47.633  15.774  1.00  0.00    -0.275 OA
ATOM      6  H   UNL     1      45.061  49.123  14.676  1.00  0.00    +0.163 HD
BRANCH   4   7
ATOM      7  C   UNL     1      44.873  47.768  16.305  1.00  0.00    +0.115 C 
BRANCH   7   8
ATOM      8  C   UNL     1      44.874  48.498  17.644  1.00  0.00    +0.018 C 
ATOM      9  C   UNL     1      45.605  47.702  18.712  1.00  0.00    +0.006 C 
ENDBRANCH   7   8
ENDBRANCH   4   7
ENDBRANCH   2   3
ENDBRANCH   1   2
BRANCH   1  10
ATOM     10  N   UNL     1      48.546  50.532  15.755  1.00  0.00    -0.337 N 
ATOM     11  C   UNL     1      49.627  50.503  16.615  1.00  0.00    +0.319 C 
ATOM     12  O   UNL     1      50.724  50.087  16.269  1.00  0.00    -0.249 OA
ATOM     13  N   UNL     1      49.272  50.998  17.851  1.00  0.00    -0.308 N 
ATOM     14  H   UNL     1      47.632  50.468  16.179  1.00  0.00    +0.165 HD
ATOM     15  H   UNL     1      48.420  51.533  17.841  1.00  0.00    +0.171 HD
BRANCH  13  16
ATOM     16  C   UNL     1      50.054  51.055  19.029  1.00  0.00    +0.046 A 
ATOM     17  C   UNL     1      50.412  49.898  19.730  1.00  0.00    +0.026 A 
ATOM     18  C   UNL     1      50.478  52.313  19.520  1.00  0.00    -0.018 A 
ATOM     19  C   UNL     1      51.206  49.967  20.875  1.00  0.00    +0.003 A 
ATOM     20  C   UNL     1      51.310  52.376  20.664  1.00  0.00    -0.027 A 
ATOM     21  C   UNL     1      50.116  53.610  18.827  1.00  0.00    +0.055 C 
ATOM     22  C   UNL     1      51.657  51.197  21.337  1.00  0.00    +0.005 A 
ATOM     23  C   UNL     1      51.821  53.692  21.219  1.00  0.00    +0.138 C 
ATOM     24  C   UNL     1      50.272  54.838  19.724  1.00  0.00    +0.107 C 
ATOM     25  N   UNL     1      51.637  54.851  20.302  1.00  0.00    -0.197 NA
BRANCH  25  26
ATOM     26  S   UNL     1      52.121  56.323  21.011  1.00  0.00    +0.214 S 
ATOM     27  O   UNL     1      53.222  56.837  20.225  1.00  0.00    -0.212 OA
ATOM     28  O   UNL     1      52.272  56.083  22.430  1.00  0.00    -0.212 OA
BRANCH  26  29
ATOM     29  C   UNL     1      50.699  57.377  20.704  1.00  0.00    +0.151 C 
ATOM     30  C   UNL     1      49.808  57.546  21.916  1.00  0.00    +0.022 C 
ENDBRANCH  26  29
ENDBRANCH  25  26
ENDBRANCH  13  16
ENDBRANCH   1  10
TORSDOF 8
ENDMDL
MODEL 3
REMARK VINA RESULT:    -7.786      3.890      5.809
REMARK INTER + INTRA:         -12.287
REMARK INTER:                 -11.888
REMARK INTRA:                  -0.400
REMARK UNBOUND:                -0.859
REMARK SMILES CCCNC(=O)CCNC(=O)Nc1cccc2c1CCN(S(=O)(=O)CC)C2
REMARK SMILES IDX 8 1 7 2 5 3 4 4 6 5 3 7 2 8 1 9 9 10 10 11 11 12 12 13 13 16
REMARK SMILES IDX 14 17 18 18 15 19 17 20 19 21 16 22 27 23 20 24 21 25 22 26
REMARK SMILES IDX 23 27 24 28 25 29 26 30
REMARK H PARENT 4 6 9 14 12 15
ROOT
ATOM      1  C   UNL     1      47.330  59.535  19.213  1.00  0.00    +0.127 C 
ENDROOT
BRANCH   1   2
ATOM      2  C   UNL     1      47.789  60.592  18.215  1.00  0.00    +0.121 C 
BRANCH   2   3
ATOM      3  C   UNL     1      46.995  61.870  18.368  1.00  0.00    +0.221 C 
ATOM      4  N   UNL     1      46.046  61.798  19.366  1.00  0.00    -0.356 N 
ATOM      5  O   UNL     1      47.202  62.878  17.702  1.00  0.00    -0.275 OA
ATOM      6  H   UNL     1      45.957  60.947  19.905  1.00  0.00    +0.163 HD
BRANCH   4   7
ATOM      7  C   UNL     1      45.214  62.931  19.717  1.00  0.00    +0.115 C 
BRANCH   7   8
ATOM      8  C   UNL     1      43.743  62.653  19.428  1.00  0.00    +0.018 C 
ATOM      9  C   UNL     1      43.465  61.162  19.334  1.00  0.00    +0.006 C 
ENDBRANCH   7   8
ENDBRANCH   4   7
ENDBRANCH   2   3
ENDBRANCH   1   2
BRANCH   1  10
ATOM     10  N   UNL     1      48.139  58.327  19.159  1.00  0.00    -0.337 N 
ATOM     11  C   UNL     1      48.708  57.798  20.302  1.00  0.00    +0.319 C 
ATOM     12  O   UNL     1      48.557  58.309  21.403  1.00  0.00    -0.249 OA
ATOM     13  N   UNL     1      49.426  56.661  19.999  1.00  0.00    -0.308 N 
ATOM     14  H   UNL     1      48.619  58.143  18.291  1.00  0.00    +0.165 HD
ATOM     15  H   UNL     1      49.195  56.265  19.103  1.00  0.00    +0.171 HD
BRANCH  13  16
ATOM     16  C   UNL     1      50.229  55.877  20.861  1.00  0.00    +0.046 A 
ATOM     17  C   UNL     1      50.848  56.426  21.990  1.00  0.00    +0.026 A 
ATOM     18  C   UNL     1      50.422  54.505  20.573  1.00  0.00    -0.018 A 
ATOM     19  C   UNL     1      51.615  55.636  22.846  1.00  0.00    +0.003 A 
ATOM     20  C   UNL     1      51.175  53.700  21.462  1.00  0.00    -0.027 A 
ATOM     21  C   UNL     1      49.799  53.843  19.361  1.00  0.00    +0.055 C 
ATOM     22  C   UNL     1      51.774  54.281  22.587  1.00  0.00    +0.005 A 
ATOM     23  C   UNL     1      51.390  52.218  21.222  1.00  0.00    +0.138 C 
ATOM     24  C   UNL     1      50.469  52.522  18.985  1.00  0.00    +0.107 C 
ATOM     25  N   UNL     1      50.507  51.637  20.173  1.00  0.00    -0.197 NA
BRANCH  25  26
ATOM     26  S   UNL     1      50.863  50.000  19.860  1.00  0.00    +0.214 S 
ATOM     27  O   UNL     1      50.373  49.231  20.984  1.00  0.00    -0.212 OA
ATOM     28  O   UNL     1      52.254  49.933  19.467  1.00  0.00    -0.212 OA
BRANCH  26  29
ATOM     29  C   UNL     1      49.800  49.643  18.456  1.00  0.00    +0.151 C 
ATOM     30  C   UNL     1      48.478  49.020  18.851  1.00  0.00    +0.022 C 
ENDBRANCH  26  29
ENDBRANCH  25  26
ENDBRANCH  13  16
ENDBRANCH   1  10
TORSDOF 8
ENDMDL
MODEL 4
REMARK VINA RESULT:    -7.517      4.440      6.567
REMARK INTER + INTRA:         -11.892
REMARK INTER:                 -11.332
REMARK INTRA:                  -0.560
REMARK UNBOUND:                -0.859
REMARK SMILES CCCNC(=O)CCNC(=O)Nc1cccc2c1CCN(S(=O)(=O)CC)C2
REMARK SMILES IDX 8 1 7 2 5 3 4 4 6 5 3 7 2 8 1 9 9 10 10 11 11 12 12 13 13 16
REMARK SMILES IDX 14 17 18 18 15 19 17 20 19 21 16 22 27 23 20 24 21 25 22 26
REMARK SMILES IDX 23 27 24 28 25 29 26 30
REMARK H PARENT 4 6 9 14 12 15
ROOT
ATOM      1  C   UNL     1      46.735  59.763  19.229  1.00  0.00    +0.127 C 
ENDROOT
BRANCH   1   2
ATOM      2  C   UNL     1      46.912  61.275  19.168  1.00  0.00    +0.121 C 
BRANCH   2   3
ATOM      3  C   UNL     1      46.050  61.883  18.084  1.00  0.00    +0.221 C 
ATOM      4  N   UNL     1      46.521  63.099  17.639  1.00  0.00    -0.356 N 
ATOM      5  O   UNL     1      45.057  61.332  17.622  1.00  0.00    -0.275 OA
ATOM      6  H   UNL     1      47.371  63.478  18.037  1.00  0.00    +0.163 HD
BRANCH   4   7
ATOM      7  C   UNL     1      45.877  63.826  16.564  1.00  0.00    +0.115 C 
BRANCH   7   8
ATOM      8  C   UNL     1      46.780  64.925  16.015  1.00  0.00    +0.018 C 
ATOM      9  C   UNL     1      46.812  66.134  16.935  1.00  0.00    +0.006 C 
ENDBRANCH   7   8
ENDBRANCH   4   7
ENDBRANCH   2   3
ENDBRANCH   1   2
BRANCH   1  10
ATOM     10  N   UNL     1      48.003  59.050  19.213  1.00  0.00    -0.337 N 
ATOM     11  C   UNL     1      48.290  58.083  20.159  1.00  0.00    +0.319 C 
ATOM     12  O   UNL     1      47.499  57.779  21.040  1.00  0.00    -0.249 OA
ATOM     13  N   UNL     1      49.544  57.555  19.939  1.00  0.00    -0.308 N 
ATOM     14  H   UNL     1      48.791  59.539  18.817  1.00  0.00    +0.165 HD
ATOM     15  H   UNL     1      49.904  57.740  19.018  1.00  0.00    +0.171 HD
BRANCH  13  16
ATOM     16  C   UNL     1      50.247  56.614  20.729  1.00  0.00    +0.046 A 
ATOM     17  C   UNL     1      50.849  56.975  21.940  1.00  0.00    +0.026 A 
ATOM     18  C   UNL     1      50.355  55.276  20.281  1.00  0.00    -0.018 A 
ATOM     19  C   UNL     1      51.517  56.032  22.720  1.00  0.00    +0.003 A 
ATOM     20  C   UNL     1      51.005  54.314  21.092  1.00  0.00    -0.027 A 
ATOM     21  C   UNL     1      49.745  54.814  18.975  1.00  0.00    +0.055 C 
ATOM     22  C   UNL     1      51.590  54.709  22.303  1.00  0.00    +0.005 A 
ATOM     23  C   UNL     1      51.126  52.859  20.681  1.00  0.00    +0.138 C 
ATOM     24  C   UNL     1      50.335  53.499  18.464  1.00  0.00    +0.107 C 
ATOM     25  N   UNL     1      50.254  52.478  19.535  1.00  0.00    -0.197 NA
BRANCH  25  26
ATOM     26  S   UNL     1      50.506  50.868  19.037  1.00  0.00    +0.214 S 
ATOM     27  O   UNL     1      51.698  50.855  18.215  1.00  0.00    -0.212 OA
ATOM     28  O   UNL     1      49.246  50.379  18.521  1.00  0.00    -0.212 OA
BRANCH  26  29
ATOM     29  C   UNL     1      50.908  50.050  20.584  1.00  0.00    +0.151 C 
ATOM     30  C   UNL     1      50.734  48.547  20.529  1.00  0.00    +0.022 C 
ENDBRANCH  26  29
ENDBRANCH  25  26
ENDBRANCH  13  16
ENDBRANCH   1  10
TORSDOF 8
ENDMDL
MODEL 5
REMARK VINA RESULT:    -7.497      2.167      2.651
REMARK INTER + INTRA:         -11.863
REMARK INTER:                 -11.120
REMARK INTRA:                  -0.743
REMARK UNBOUND:                -0.859
REMARK SMILES CCCNC(=O)CCNC(=O)Nc1cccc2c1CCN(S(=O)(=O)CC)C2
REMARK SMILES IDX 8 1 7 2 5 3 4 4 6 5 3 7 2 8 1 9 9 10 10 11 11 12 12 13 13 16
REMARK SMILES IDX 14 17 18 18 15 19 17 20 19 21 16 22 27 23 20 24 21 25 22 26
REMARK SMILES IDX 23 27 24 28 25 29 26 30
REMARK H PARENT 4 6 9 14 12 15
ROOT
ATOM      1  C   UNL     1      50.046  56.876  20.217  1.00  0.00    +0.127 C 
ENDROOT
BRANCH   1   2
ATOM      2  C   UNL     1      48.607  57.292  20.500  1.00  0.00    +0.121 C 
BRANCH   2   3
ATOM      3  C   UNL     1      48.000  58.003  19.311  1.00  0.00    +0.221 C 
ATOM      4  N   UNL     1      47.658  59.311  19.582  1.00  0.00    -0.356 N 
ATOM      5  O   UNL     1      47.863  57.482  18.211  1.00  0.00    -0.275 OA
ATOM      6  H   UNL     1      47.837  59.689  20.503  1.00  0.00    +0.163 HD
BRANCH   4   7
ATOM      7  C   UNL     1      47.113  60.188  18.567  1.00  0.00    +0.115 C 
BRANCH   7   8
ATOM      8  C   UNL     1      46.445  61.410  19.186  1.00  0.00    +0.018 C 
ATOM      9  C   UNL     1      44.930  61.301  19.139  1.00  0.00    +0.006 C 
ENDBRANCH   7   8
ENDBRANCH   4   7
ENDBRANCH   2   3
ENDBRANCH   1   2
BRANCH   1  10
ATOM     10  N   UNL     1      50.130  55.668  19.411  1.00  0.00    -0.337 N 
ATOM     11  C   UNL     1      50.157  54.418  20.000  1.00  0.00    +0.319 C 
ATOM     12  O   UNL     1      50.107  54.267  21.212  1.00  0.00    -0.249 OA
ATOM     13  N   UNL     1      50.241  53.435  19.037  1.00  0.00    -0.308 N 
ATOM     14  H   UNL     1      50.586  55.753  18.515  1.00  0.00    +0.165 HD
ATOM     15  H   UNL     1      49.992  53.752  18.115  1.00  0.00    +0.171 HD
BRANCH  13  16
ATOM     16  C   UNL     1      50.383  52.039  19.222  1.00  0.00    +0.046 A 
ATOM     17  C   UNL     1      51.403  51.503  20.017  1.00  0.00    +0.026 A 
ATOM     18  C   UNL     1      49.480  51.159  18.579  1.00  0.00    -0.018 A 
ATOM     19  C   UNL     1      51.516  50.127  20.211  1.00  0.00    +0.003 A 
ATOM     20  C   UNL     1      49.579  49.764  18.805  1.00  0.00    -0.027 A 
ATOM     21  C   UNL     1      48.363  51.662  17.690  1.00  0.00    +0.055 C 
ATOM     22  C   UNL     1      50.607  49.263  19.614  1.00  0.00    +0.005 A 
ATOM     23  C   UNL     1      48.622  48.774  18.169  1.00  0.00    +0.138 C 
ATOM     24  C   UNL     1      47.802  50.587  16.759  1.00  0.00    +0.107 C 
ATOM     25  N   UNL     1      47.416  49.400  17.559  1.00  0.00    -0.197 NA
BRANCH  25  26
ATOM     26  S   UNL     1      46.429  48.264  16.759  1.00  0.00    +0.214 S 
ATOM     27  O   UNL     1      47.037  46.963  16.944  1.00  0.00    -0.212 OA
ATOM     28  O   UNL     1      46.174  48.780  15.432  1.00  0.00    -0.212 OA
BRANCH  26  29
ATOM     29  C   UNL     1      44.929  48.304  17.746  1.00  0.00    +0.151 C 
ATOM     30  C   UNL     1      44.990  47.406  18.963  1.00  0.00    +0.022 C 
ENDBRANCH  26  29
ENDBRANCH  25  26
ENDBRANCH  13  16
ENDBRANCH   1  10
TORSDOF 8
ENDMDL
