MODEL 1
REMARK VINA RESULT:    -8.788      0.000      0.000
REMARK INTER + INTRA:         -13.686
REMARK INTER:                 -12.385
REMARK INTRA:                  -1.302
REMARK UNBOUND:                -1.302
REMARK SMILES C#CCNC(=O)c1ccccc1NC(=O)CCNC(=O)C1CCCC1
REMARK SMILES IDX 13 1 14 2 15 3 12 5 7 6 8 7 9 8 11 9 10 10 5 11 4 12 6 13
REMARK SMILES IDX 3 15 2 16 1 17 16 18 17 19 18 20 19 21 20 22 21 24 22 25
REMARK SMILES IDX 25 26 23 27 24 28
REMARK H PARENT 13 4 4 14 18 23
ROOT
ATOM      1  N   UNL     1      48.629  54.734  19.012  1.00  0.00    -0.325 N 
ATOM      2  C   UNL     1      48.491  54.783  17.639  1.00  0.00    +0.226 C 
ATOM      3  O   UNL     1      48.540  55.789  16.937  1.00  0.00    -0.275 OA
ATOM      4  H   UNL     1      48.514  53.818  19.455  1.00  0.00    +0.169 HD
ENDROOT
BRANCH   1   5
ATOM      5  C   UNL     1      48.836  55.798  19.926  1.00  0.00    +0.053 A 
ATOM      6  C   UNL     1      49.969  55.771  20.777  1.00  0.00    +0.063 A 
ATOM      7  C   UNL     1      50.157  56.788  21.730  1.00  0.00    +0.016 A 
ATOM      8  C   UNL     1      49.258  57.849  21.817  1.00  0.00    +0.001 A 
ATOM      9  C   UNL     1      47.952  56.880  20.025  1.00  0.00    +0.027 A 
ATOM     10  C   UNL     1      48.164  57.899  20.959  1.00  0.00    +0.002 A 
BRANCH   6  11
ATOM     11  C   UNL     1      50.965  54.657  20.677  1.00  0.00    +0.254 C 
ATOM     12  N   UNL     1      50.829  53.619  21.574  1.00  0.00    -0.341 N 
ATOM     13  O   UNL     1      51.874  54.720  19.854  1.00  0.00    -0.269 OA
ATOM     14  H   UNL     1      50.225  53.738  22.374  1.00  0.00    +0.164 HD
BRANCH  12  15
ATOM     15  C   UNL     1      51.819  52.572  21.670  1.00  0.00    +0.206 C 
ATOM     16  C   UNL     1      51.321  51.361  21.009  1.00  0.00    -0.085 C 
ATOM     17  C   UNL     1      50.913  50.369  20.468  1.00  0.00    +0.006 C 
ENDBRANCH  12  15
ENDBRANCH   6  11
ENDBRANCH   1   5
BRANCH   2  18
ATOM     18  C   UNL     1      48.222  53.406  17.054  1.00  0.00    +0.121 C 
BRANCH  18  19
ATOM     19  C   UNL     1      49.161  52.340  17.602  1.00  0.00    +0.125 C 
BRANCH  19  20
ATOM     20  N   UNL     1      48.500  51.062  17.788  1.00  0.00    -0.355 N 
ATOM     21  C   UNL     1      48.646  50.040  16.873  1.00  0.00    +0.223 C 
ATOM     22  O   UNL     1      49.443  50.084  15.941  1.00  0.00    -0.275 OA
ATOM     23  H   UNL     1      47.618  51.101  18.294  1.00  0.00    +0.163 HD
BRANCH  21  24
ATOM     24  C   UNL     1      47.699  48.872  17.119  1.00  0.00    +0.078 C 
ATOM     25  C   UNL     1      47.424  48.616  18.605  1.00  0.00    +0.013 C 
ATOM     26  C   UNL     1      46.315  49.081  16.477  1.00  0.00    +0.013 C 
ATOM     27  C   UNL     1      46.001  48.082  18.637  1.00  0.00    +0.001 C 
ATOM     28  C   UNL     1      45.298  48.941  17.604  1.00  0.00    +0.001 C 
ENDBRANCH  21  24
ENDBRANCH  19  20
ENDBRANCH  18  19
ENDBRANCH   2  18
TORSDOF 7
ENDMDL
MODEL 2
REMARK VINA RESULT:    -8.453      2.196      4.453
REMARK INTER + INTRA:         -13.214
REMARK INTER:                 -11.599
REMARK INTRA:                  -1.615
REMARK UNBOUND:                -1.302
REMARK SMILES C#CCNC(=O)c1ccccc1NC(=O)CCNC(=O)C1CCCC1
REMARK SMILES IDX 13 1 14 2 15 3 12 5 7 6 8 7 9 8 11 9 10 10 5 11 4 12 6 13
REMARK SMILES IDX 3 15 2 16 1 17 16 18 17 19 18 20 19 21 20 22 21 24 22 25
REMARK SMILES IDX 25 26 23 27 24 28
REMARK H PARENT 13 4 4 14 18 23
ROOT
ATOM      1  N   UNL     1      50.890  55.483  19.359  1.00  0.00    -0.325 N 
ATOM      2  C   UNL     1      51.232  54.194  19.721  1.00  0.00    +0.226 C 
ATOM      3  O   UNL     1      50.713  53.524  20.608  1.00  0.00    -0.275 OA
ATOM      4  H   UNL     1      51.456  55.922  18.628  1.00  0.00    +0.169 HD
ENDROOT
BRANCH   1   5
ATOM      5  C   UNL     1      49.899  56.331  19.915  1.00  0.00    +0.053 A 
ATOM      6  C   UNL     1      48.749  56.648  19.150  1.00  0.00    +0.063 A 
ATOM      7  C   UNL     1      47.786  57.535  19.663  1.00  0.00    +0.016 A 
ATOM      8  C   UNL     1      47.932  58.075  20.939  1.00  0.00    +0.001 A 
ATOM      9  C   UNL     1      50.019  56.877  21.199  1.00  0.00    +0.027 A 
ATOM     10  C   UNL     1      49.041  57.738  21.708  1.00  0.00    +0.002 A 
BRANCH   6  11
ATOM     11  C   UNL     1      48.556  56.051  17.790  1.00  0.00    +0.254 C 
ATOM     12  N   UNL     1      48.264  56.925  16.764  1.00  0.00    -0.341 N 
ATOM     13  O   UNL     1      48.617  54.834  17.639  1.00  0.00    -0.269 OA
ATOM     14  H   UNL     1      47.986  57.870  16.988  1.00  0.00    +0.164 HD
BRANCH  12  15
ATOM     15  C   UNL     1      47.907  56.450  15.448  1.00  0.00    +0.206 C 
ATOM     16  C   UNL     1      46.522  56.828  15.146  1.00  0.00    -0.085 C 
ATOM     17  C   UNL     1      45.388  57.137  14.900  1.00  0.00    +0.006 C 
ENDBRANCH  12  15
ENDBRANCH   6  11
ENDBRANCH   1   5
BRANCH   2  18
ATOM     18  C   UNL     1      52.399  53.674  18.897  1.00  0.00    +0.121 C 
BRANCH  18  19
ATOM     19  C   UNL     1      52.346  52.167  18.686  1.00  0.00    +0.125 C 
BRANCH  19  20
ATOM     20  N   UNL     1      51.126  51.743  18.025  1.00  0.00    -0.355 N 
ATOM     21  C   UNL     1      50.426  50.635  18.458  1.00  0.00    +0.223 C 
ATOM     22  O   UNL     1      50.692  50.036  19.494  1.00  0.00    -0.275 OA
ATOM     23  H   UNL     1      51.074  51.958  17.032  1.00  0.00    +0.163 HD
BRANCH  21  24
ATOM     24  C   UNL     1      49.314  50.216  17.504  1.00  0.00    +0.078 C 
ATOM     25  C   UNL     1      48.159  49.487  18.200  1.00  0.00    +0.013 C 
ATOM     26  C   UNL     1      48.667  51.412  16.781  1.00  0.00    +0.013 C 
ATOM     27  C   UNL     1      46.931  49.868  17.388  1.00  0.00    +0.001 C 
ATOM     28  C   UNL     1      47.174  51.334  17.082  1.00  0.00    +0.001 C 
ENDBRANCH  21  24
ENDBRANCH  19  20
ENDBRANCH  18  19
ENDBRANCH   2  18
TORSDOF 7
ENDMDL
MODEL 3
REMARK VINA RESULT:    -8.190      2.366      3.699
REMARK INTER + INTRA:         -12.843
REMARK INTER:                 -11.390
REMARK INTRA:                  -1.453
REMARK UNBOUND:                -1.302
REMARK SMILES C#CCNC(=O)c1ccccc1NC(=O)CCNC(=O)C1CCCC1
REMARK SMILES IDX 13 1 14 2 15 3 12 5 7 6 8 7 9 8 11 9 10 10 5 11 4 12 6 13
REMARK SMILES IDX 3 15 2 16 1 17 16 18 17 19 18 20 19 21 20 22 21 24 22 25
REMARK SMILES IDX 25 26 23 27 24 28
REMARK H PARENT 13 4 4 14 18 23
ROOT
ATOM      1  N   UNL     1      50.490  54.711  20.593  1.00  0.00    -0.325 N 
ATOM      2  C   UNL     1      51.271  54.277  19.540  1.00  0.00    +0.226 C 
ATOM      3  O   UNL     1      51.261  54.719  18.395  1.00  0.00    -0.275 OA
ATOM      4  H   UNL     1      50.583  54.203  21.477  1.00  0.00    +0.169 HD
ENDROOT
BRANCH   1   5
ATOM      5  C   UNL     1      49.503  55.729  20.611  1.00  0.00    +0.053 A 
ATOM      6  C   UNL     1      49.762  56.935  21.308  1.00  0.00    +0.063 A 
ATOM      7  C   UNL     1      48.772  57.930  21.385  1.00  0.00    +0.016 A 
ATOM      8  C   UNL     1      47.546  57.757  20.744  1.00  0.00    +0.001 A 
ATOM      9  C   UNL     1      48.268  55.582  19.966  1.00  0.00    +0.027 A 
ATOM     10  C   UNL     1      47.300  56.590  20.029  1.00  0.00    +0.002 A 
BRANCH   6  11
ATOM     11  C   UNL     1      51.086  57.155  21.974  1.00  0.00    +0.254 C 
ATOM     12  N   UNL     1      51.749  58.324  21.666  1.00  0.00    -0.341 N 
ATOM     13  O   UNL     1      51.550  56.295  22.717  1.00  0.00    -0.269 OA
ATOM     14  H   UNL     1      51.441  58.869  20.873  1.00  0.00    +0.164 HD
BRANCH  12  15
ATOM     15  C   UNL     1      53.095  58.570  22.126  1.00  0.00    +0.206 C 
ATOM     16  C   UNL     1      54.053  57.951  21.204  1.00  0.00    -0.085 C 
ATOM     17  C   UNL     1      54.836  57.443  20.448  1.00  0.00    +0.006 C 
ENDBRANCH  12  15
ENDBRANCH   6  11
ENDBRANCH   1   5
BRANCH   2  18
ATOM     18  C   UNL     1      52.162  53.115  19.947  1.00  0.00    +0.121 C 
BRANCH  18  19
ATOM     19  C   UNL     1      52.370  52.110  18.822  1.00  0.00    +0.125 C 
BRANCH  19  20
ATOM     20  N   UNL     1      51.144  51.824  18.100  1.00  0.00    -0.355 N 
ATOM     21  C   UNL     1      50.391  50.703  18.385  1.00  0.00    +0.223 C 
ATOM     22  O   UNL     1      50.615  49.970  19.342  1.00  0.00    -0.275 OA
ATOM     23  H   UNL     1      51.118  52.162  17.141  1.00  0.00    +0.163 HD
BRANCH  21  24
ATOM     24  C   UNL     1      49.279  50.454  17.374  1.00  0.00    +0.078 C 
ATOM     25  C   UNL     1      48.047  49.774  17.981  1.00  0.00    +0.013 C 
ATOM     26  C   UNL     1      48.755  51.752  16.732  1.00  0.00    +0.013 C 
ATOM     27  C   UNL     1      46.881  50.318  17.173  1.00  0.00    +0.001 C 
ATOM     28  C   UNL     1      47.253  51.777  16.990  1.00  0.00    +0.001 C 
ENDBRANCH  21  24
ENDBRANCH  19  20
ENDBRANCH  18  19
ENDBRANCH   2  18
TORSDOF 7
ENDMDL
MODEL 4
REMARK VINA RESULT:    -8.179      1.739      6.924
REMARK INTER + INTRA:         -12.828
REMARK INTER:                 -11.811
REMARK INTRA:                  -1.017
REMARK UNBOUND:                -1.302
REMARK SMILES C#CCNC(=O)c1ccccc1NC(=O)CCNC(=O)C1CCCC1
REMARK SMILES IDX 13 1 14 2 15 3 12 5 7 6 8 7 9 8 11 9 10 10 5 11 4 12 6 13
REMARK SMILES IDX 3 15 2 16 1 17 16 18 17 19 18 20 19 21 20 22 21 24 22 25
REMARK SMILES IDX 25 26 23 27 24 28
REMARK H PARENT 13 4 4 14 18 23
ROOT
ATOM      1  N   UNL     1      50.158  52.588  19.133  1.00  0.00    -0.325 N 
ATOM      2  C   UNL     1      51.536  52.501  19.088  1.00  0.00    +0.226 C 
ATOM      3  O   UNL     1      52.249  52.737  18.117  1.00  0.00    -0.275 OA
ATOM      4  H   UNL     1      49.707  52.309  20.009  1.00  0.00    +0.169 HD
ENDROOT
BRANCH   1   5
ATOM      5  C   UNL     1      49.253  52.940  18.100  1.00  0.00    +0.053 A 
ATOM      6  C   UNL     1      48.568  51.916  17.400  1.00  0.00    +0.063 A 
ATOM      7  C   UNL     1      47.711  52.245  16.334  1.00  0.00    +0.016 A 
ATOM      8  C   UNL     1      47.498  53.577  15.986  1.00  0.00    +0.001 A 
ATOM      9  C   UNL     1      49.014  54.271  17.739  1.00  0.00    +0.027 A 
ATOM     10  C   UNL     1      48.140  54.587  16.694  1.00  0.00    +0.002 A 
BRANCH   6  11
ATOM     11  C   UNL     1      48.757  50.480  17.781  1.00  0.00    +0.254 C 
ATOM     12  N   UNL     1      47.618  49.763  18.082  1.00  0.00    -0.341 N 
ATOM     13  O   UNL     1      49.888  50.009  17.857  1.00  0.00    -0.269 OA
ATOM     14  H   UNL     1      46.753  50.258  18.241  1.00  0.00    +0.164 HD
BRANCH  12  15
ATOM     15  C   UNL     1      47.691  48.420  18.608  1.00  0.00    +0.206 C 
ATOM     16  C   UNL     1      46.337  47.886  18.786  1.00  0.00    -0.085 C 
ATOM     17  C   UNL     1      45.227  47.450  18.931  1.00  0.00    +0.006 C 
ENDBRANCH  12  15
ENDBRANCH   6  11
ENDBRANCH   1   5
BRANCH   2  18
ATOM     18  C   UNL     1      52.111  52.026  20.412  1.00  0.00    +0.121 C 
BRANCH  18  19
ATOM     19  C   UNL     1      51.971  53.060  21.520  1.00  0.00    +0.125 C 
BRANCH  19  20
ATOM     20  N   UNL     1      51.551  54.356  21.020  1.00  0.00    -0.355 N 
ATOM     21  C   UNL     1      51.349  55.421  21.874  1.00  0.00    +0.223 C 
ATOM     22  O   UNL     1      51.647  55.394  23.063  1.00  0.00    -0.275 OA
ATOM     23  H   UNL     1      50.983  54.331  20.176  1.00  0.00    +0.163 HD
BRANCH  21  24
ATOM     24  C   UNL     1      50.691  56.618  21.196  1.00  0.00    +0.078 C 
ATOM     25  C   UNL     1      49.273  56.326  20.693  1.00  0.00    +0.013 C 
ATOM     26  C   UNL     1      50.553  57.831  22.133  1.00  0.00    +0.013 C 
ATOM     27  C   UNL     1      48.549  57.656  20.822  1.00  0.00    +0.001 C 
ATOM     28  C   UNL     1      49.072  58.196  22.139  1.00  0.00    +0.001 C 
ENDBRANCH  21  24
ENDBRANCH  19  20
ENDBRANCH  18  19
ENDBRANCH   2  18
TORSDOF 7
ENDMDL
MODEL 5
REMARK VINA RESULT:    -7.959      1.932      4.385
REMARK INTER + INTRA:         -12.518
REMARK INTER:                 -11.380
REMARK INTRA:                  -1.138
REMARK UNBOUND:                -1.302
REMARK SMILES C#CCNC(=O)c1ccccc1NC(=O)CCNC(=O)C1CCCC1
REMARK SMILES IDX 13 1 14 2 15 3 12 5 7 6 8 7 9 8 11 9 10 10 5 11 4 12 6 13
REMARK SMILES IDX 3 15 2 16 1 17 16 18 17 19 18 20 19 21 20 22 21 24 22 25
REMARK SMILES IDX 25 26 23 27 24 28
REMARK H PARENT 13 4 4 14 18 23
ROOT
ATOM      1  N   UNL     1      50.345  51.818  17.952  1.00  0.00    -0.325 N 
ATOM      2  C   UNL     1      49.835  50.626  17.476  1.00  0.00    +0.226 C 
ATOM      3  O   UNL     1      49.613  49.614  18.133  1.00  0.00    -0.275 OA
ATOM      4  H   UNL     1      50.518  52.554  17.262  1.00  0.00    +0.169 HD
ENDROOT
BRANCH   1   5
ATOM      5  C   UNL     1      50.741  52.154  19.271  1.00  0.00    +0.053 A 
ATOM      6  C   UNL     1      50.275  53.362  19.849  1.00  0.00    +0.063 A 
ATOM      7  C   UNL     1      50.706  53.740  21.133  1.00  0.00    +0.016 A 
ATOM      8  C   UNL     1      51.557  52.913  21.863  1.00  0.00    +0.001 A 
ATOM      9  C   UNL     1      51.587  51.335  20.028  1.00  0.00    +0.027 A 
ATOM     10  C   UNL     1      51.988  51.709  21.315  1.00  0.00    +0.002 A 
BRANCH   6  11
ATOM     11  C   UNL     1      49.332  54.248  19.094  1.00  0.00    +0.254 C 
ATOM     12  N   UNL     1      49.553  55.606  19.182  1.00  0.00    -0.341 N 
ATOM     13  O   UNL     1      48.391  53.758  18.476  1.00  0.00    -0.269 OA
ATOM     14  H   UNL     1      50.179  55.958  19.891  1.00  0.00    +0.164 HD
BRANCH  12  15
ATOM     15  C   UNL     1      48.620  56.558  18.625  1.00  0.00    +0.206 C 
ATOM     16  C   UNL     1      47.955  57.289  19.709  1.00  0.00    -0.085 C 
ATOM     17  C   UNL     1      47.411  57.886  20.597  1.00  0.00    +0.006 C 
ENDBRANCH  12  15
ENDBRANCH   6  11
ENDBRANCH   1   5
BRANCH   2  18
ATOM     18  C   UNL     1      49.601  50.678  15.975  1.00  0.00    +0.121 C 
BRANCH  18  19
ATOM     19  C   UNL     1      49.591  49.298  15.332  1.00  0.00    +0.125 C 
BRANCH  19  20
ATOM     20  N   UNL     1      48.631  48.404  15.952  1.00  0.00    -0.355 N 
ATOM     21  C   UNL     1      47.353  48.266  15.449  1.00  0.00    +0.223 C 
ATOM     22  O   UNL     1      46.994  48.759  14.385  1.00  0.00    -0.275 OA
ATOM     23  H   UNL     1      48.745  48.275  16.955  1.00  0.00    +0.163 HD
BRANCH  21  24
ATOM     24  C   UNL     1      46.430  47.470  16.364  1.00  0.00    +0.078 C 
ATOM     25  C   UNL     1      46.803  47.580  17.847  1.00  0.00    +0.013 C 
ATOM     26  C   UNL     1      44.963  47.928  16.275  1.00  0.00    +0.013 C 
ATOM     27  C   UNL     1      45.474  47.472  18.576  1.00  0.00    +0.001 C 
ATOM     28  C   UNL     1      44.542  48.284  17.696  1.00  0.00    +0.001 C 
ENDBRANCH  21  24
ENDBRANCH  19  20
ENDBRANCH  18  19
ENDBRANCH   2  18
TORSDOF 7
ENDMDL
