MODEL 1
REMARK VINA RESULT:    -8.350      0.000      0.000
REMARK INTER + INTRA:         -12.319
REMARK INTER:                 -11.767
REMARK INTRA:                  -0.553
REMARK UNBOUND:                -0.553
REMARK SMILES Nc1nnc(SC[C@H](O)CO[C@@H]2CCCc3ccccc32)s1
REMARK SMILES IDX 7 1 8 2 10 3 11 4 12 5 18 6 19 7 17 8 20 9 16 10 21 11 15 12
REMARK SMILES IDX 14 13 13 14 9 15 6 17 5 18 4 19 22 20 3 21 2 22 1 23
REMARK H PARENT 9 16 1 24 1 25
ROOT
ATOM      1  C   UNL     1      51.132  52.048  20.935  1.00  0.00    +0.111 C 
ENDROOT
BRANCH   1   2
ATOM      2  C   UNL     1      51.541  50.581  20.742  1.00  0.00    +0.150 C 
BRANCH   2   3
ATOM      3  C   UNL     1      51.211  49.987  19.364  1.00  0.00    +0.193 C 
BRANCH   3   4
ATOM      4  O   UNL     1      49.806  50.113  19.106  1.00  0.00    -0.371 OA
BRANCH   4   5
ATOM      5  C   UNL     1      49.425  49.849  17.748  1.00  0.00    +0.148 C 
ATOM      6  C   UNL     1      45.265  48.666  17.772  1.00  0.00    +0.000 A 
ATOM      7  C   UNL     1      46.256  47.760  18.131  1.00  0.00    +0.000 A 
ATOM      8  C   UNL     1      45.610  49.965  17.401  1.00  0.00    +0.004 A 
ATOM      9  C   UNL     1      47.595  48.151  18.116  1.00  0.00    +0.007 A 
ATOM     10  C   UNL     1      46.953  50.374  17.390  1.00  0.00    -0.042 A 
ATOM     11  C   UNL     1      47.963  49.454  17.740  1.00  0.00    -0.016 A 
ATOM     12  C   UNL     1      47.277  51.779  16.944  1.00  0.00    +0.036 C 
ATOM     13  C   UNL     1      48.699  52.216  17.288  1.00  0.00    +0.008 C 
ATOM     14  C   UNL     1      49.694  51.117  16.929  1.00  0.00    +0.037 C 
ENDBRANCH   4   5
ENDBRANCH   3   4
ENDBRANCH   2   3
BRANCH   2  15
ATOM     15  O   UNL     1      52.940  50.427  21.019  1.00  0.00    -0.390 OA
ATOM     16  H   UNL     1      53.064  49.499  21.304  1.00  0.00    +0.211 HD
ENDBRANCH   2  15
ENDBRANCH   1   2
BRANCH   1  17
ATOM     17  S   UNL     1      51.795  53.259  19.742  1.00  0.00    -0.091 SA
BRANCH  17  18
ATOM     18  C   UNL     1      51.985  54.668  20.759  1.00  0.00    +0.176 A 
ATOM     19  N   UNL     1      51.879  54.580  22.066  1.00  0.00    -0.130 NA
ATOM     20  S   UNL     1      52.393  56.226  20.182  1.00  0.00    -0.069 S 
ATOM     21  N   UNL     1      52.081  55.803  22.679  1.00  0.00    -0.120 NA
ATOM     22  C   UNL     1      52.349  56.757  21.816  1.00  0.00    +0.203 A 
BRANCH  22  23
ATOM     23  N   UNL     1      52.600  58.039  22.148  1.00  0.00    -0.374 N 
ATOM     24  H   UNL     1      51.967  58.746  21.795  1.00  0.00    +0.159 HD
ATOM     25  H   UNL     1      53.577  58.311  22.113  1.00  0.00    +0.159 HD
ENDBRANCH  22  23
ENDBRANCH  17  18
ENDBRANCH   1  17
TORSDOF 8
ENDMDL
MODEL 2
REMARK VINA RESULT:    -7.862      1.544      1.860
REMARK INTER + INTRA:         -11.632
REMARK INTER:                 -11.236
REMARK INTRA:                  -0.396
REMARK UNBOUND:                -0.553
REMARK SMILES Nc1nnc(SC[C@H](O)CO[C@@H]2CCCc3ccccc32)s1
REMARK SMILES IDX 7 1 8 2 10 3 11 4 12 5 18 6 19 7 17 8 20 9 16 10 21 11 15 12
REMARK SMILES IDX 14 13 13 14 9 15 6 17 5 18 4 19 22 20 3 21 2 22 1 23
REMARK H PARENT 9 16 1 24 1 25
ROOT
ATOM      1  C   UNL     1      51.174  51.169  20.336  1.00  0.00    +0.111 C 
ENDROOT
BRANCH   1   2
ATOM      2  C   UNL     1      50.434  50.213  19.388  1.00  0.00    +0.150 C 
BRANCH   2   3
ATOM      3  C   UNL     1      50.449  50.621  17.907  1.00  0.00    +0.193 C 
BRANCH   3   4
ATOM      4  O   UNL     1      49.168  50.359  17.319  1.00  0.00    -0.371 OA
BRANCH   4   5
ATOM      5  C   UNL     1      48.958  48.991  16.938  1.00  0.00    +0.148 C 
ATOM      6  C   UNL     1      44.835  48.020  17.813  1.00  0.00    +0.000 A 
ATOM      7  C   UNL     1      45.782  48.048  18.830  1.00  0.00    +0.000 A 
ATOM      8  C   UNL     1      45.213  48.305  16.501  1.00  0.00    +0.004 A 
ATOM      9  C   UNL     1      47.110  48.359  18.536  1.00  0.00    +0.007 A 
ATOM     10  C   UNL     1      46.544  48.628  16.193  1.00  0.00    -0.042 A 
ATOM     11  C   UNL     1      47.510  48.644  17.219  1.00  0.00    -0.016 A 
ATOM     12  C   UNL     1      46.909  48.892  14.752  1.00  0.00    +0.036 C 
ATOM     13  C   UNL     1      48.275  49.551  14.580  1.00  0.00    +0.008 C 
ATOM     14  C   UNL     1      49.315  48.855  15.453  1.00  0.00    +0.037 C 
ENDBRANCH   4   5
ENDBRANCH   3   4
ENDBRANCH   2   3
BRANCH   2  15
ATOM     15  O   UNL     1      50.954  48.885  19.537  1.00  0.00    -0.390 OA
ATOM     16  H   UNL     1      50.651  48.567  20.411  1.00  0.00    +0.211 HD
ENDBRANCH   2  15
ENDBRANCH   1   2
BRANCH   1  17
ATOM     17  S   UNL     1      52.171  52.491  19.569  1.00  0.00    -0.091 SA
BRANCH  17  18
ATOM     18  C   UNL     1      51.983  53.778  20.736  1.00  0.00    +0.176 A 
ATOM     19  N   UNL     1      51.875  53.518  22.020  1.00  0.00    -0.130 NA
ATOM     20  S   UNL     1      52.001  55.444  20.347  1.00  0.00    -0.069 S 
ATOM     21  N   UNL     1      51.752  54.676  22.768  1.00  0.00    -0.120 NA
ATOM     22  C   UNL     1      51.792  55.758  22.023  1.00  0.00    +0.203 A 
BRANCH  22  23
ATOM     23  N   UNL     1      51.708  57.015  22.500  1.00  0.00    -0.374 N 
ATOM     24  H   UNL     1      51.216  57.698  21.937  1.00  0.00    +0.159 HD
ATOM     25  H   UNL     1      52.557  57.373  22.927  1.00  0.00    +0.159 HD
ENDBRANCH  22  23
ENDBRANCH  17  18
ENDBRANCH   1  17
TORSDOF 8
ENDMDL
MODEL 3
REMARK VINA RESULT:    -7.519      4.112      7.410
REMARK INTER + INTRA:         -11.149
REMARK INTER:                 -10.592
REMARK INTRA:                  -0.557
REMARK UNBOUND:                -0.553
REMARK SMILES Nc1nnc(SC[C@H](O)CO[C@@H]2CCCc3ccccc32)s1
REMARK SMILES IDX 7 1 8 2 10 3 11 4 12 5 18 6 19 7 17 8 20 9 16 10 21 11 15 12
REMARK SMILES IDX 14 13 13 14 9 15 6 17 5 18 4 19 22 20 3 21 2 22 1 23
REMARK H PARENT 9 16 1 24 1 25
ROOT
ATOM      1  C   UNL     1      51.750  50.292  20.064  1.00  0.00    +0.111 C 
ENDROOT
BRANCH   1   2
ATOM      2  C   UNL     1      51.736  51.695  20.688  1.00  0.00    +0.150 C 
BRANCH   2   3
ATOM      3  C   UNL     1      50.475  52.524  20.401  1.00  0.00    +0.193 C 
BRANCH   3   4
ATOM      4  O   UNL     1      50.513  53.743  21.156  1.00  0.00    -0.371 OA
BRANCH   4   5
ATOM      5  C   UNL     1      50.883  54.901  20.394  1.00  0.00    +0.148 C 
ATOM      6  C   UNL     1      47.664  57.768  20.750  1.00  0.00    +0.000 A 
ATOM      7  C   UNL     1      47.553  56.691  19.879  1.00  0.00    +0.000 A 
ATOM      8  C   UNL     1      48.818  57.929  21.515  1.00  0.00    +0.004 A 
ATOM      9  C   UNL     1      48.599  55.774  19.769  1.00  0.00    +0.007 A 
ATOM     10  C   UNL     1      49.874  57.010  21.421  1.00  0.00    -0.042 A 
ATOM     11  C   UNL     1      49.772  55.923  20.528  1.00  0.00    -0.016 A 
ATOM     12  C   UNL     1      51.118  57.249  22.242  1.00  0.00    +0.036 C 
ATOM     13  C   UNL     1      52.041  56.037  22.320  1.00  0.00    +0.008 C 
ATOM     14  C   UNL     1      52.220  55.416  20.938  1.00  0.00    +0.037 C 
ENDBRANCH   4   5
ENDBRANCH   3   4
ENDBRANCH   2   3
BRANCH   2  15
ATOM     15  O   UNL     1      51.947  51.597  22.103  1.00  0.00    -0.390 OA
ATOM     16  H   UNL     1      52.384  52.430  22.374  1.00  0.00    +0.211 HD
ENDBRANCH   2  15
ENDBRANCH   1   2
BRANCH   1  17
ATOM     17  S   UNL     1      50.199  49.334  20.139  1.00  0.00    -0.091 SA
BRANCH  17  18
ATOM     18  C   UNL     1      49.697  49.369  18.465  1.00  0.00    +0.176 A 
ATOM     19  N   UNL     1      50.130  50.301  17.646  1.00  0.00    -0.130 NA
ATOM     20  S   UNL     1      48.694  48.191  17.734  1.00  0.00    -0.069 S 
ATOM     21  N   UNL     1      49.627  50.135  16.369  1.00  0.00    -0.120 NA
ATOM     22  C   UNL     1      48.852  49.078  16.270  1.00  0.00    +0.203 A 
BRANCH  22  23
ATOM     23  N   UNL     1      48.245  48.681  15.135  1.00  0.00    -0.374 N 
ATOM     24  H   UNL     1      48.798  48.158  14.467  1.00  0.00    +0.159 HD
ATOM     25  H   UNL     1      47.633  49.369  14.709  1.00  0.00    +0.159 HD
ENDBRANCH  22  23
ENDBRANCH  17  18
ENDBRANCH   1  17
TORSDOF 8
ENDMDL
MODEL 4
REMARK VINA RESULT:    -7.328      2.793      4.088
REMARK INTER + INTRA:         -10.880
REMARK INTER:                 -10.363
REMARK INTRA:                  -0.517
REMARK UNBOUND:                -0.553
REMARK SMILES Nc1nnc(SC[C@H](O)CO[C@@H]2CCCc3ccccc32)s1
REMARK SMILES IDX 7 1 8 2 10 3 11 4 12 5 18 6 19 7 17 8 20 9 16 10 21 11 15 12
REMARK SMILES IDX 14 13 13 14 9 15 6 17 5 18 4 19 22 20 3 21 2 22 1 23
REMARK H PARENT 9 16 1 24 1 25
ROOT
ATOM      1  C   UNL     1      49.795  53.973  18.827  1.00  0.00    +0.111 C 
ENDROOT
BRANCH   1   2
ATOM      2  C   UNL     1      49.326  53.118  17.640  1.00  0.00    +0.150 C 
BRANCH   2   3
ATOM      3  C   UNL     1      48.786  51.728  18.010  1.00  0.00    +0.193 C 
BRANCH   3   4
ATOM      4  O   UNL     1      48.175  51.125  16.862  1.00  0.00    -0.371 OA
BRANCH   4   5
ATOM      5  C   UNL     1      48.384  49.709  16.753  1.00  0.00    +0.148 C 
ATOM      6  C   UNL     1      44.501  47.809  16.883  1.00  0.00    +0.000 A 
ATOM      7  C   UNL     1      45.108  48.251  18.053  1.00  0.00    +0.000 A 
ATOM      8  C   UNL     1      45.146  47.977  15.658  1.00  0.00    +0.004 A 
ATOM      9  C   UNL     1      46.362  48.859  18.000  1.00  0.00    +0.007 A 
ATOM     10  C   UNL     1      46.404  48.595  15.589  1.00  0.00    -0.042 A 
ATOM     11  C   UNL     1      47.029  49.032  16.775  1.00  0.00    -0.016 A 
ATOM     12  C   UNL     1      47.077  48.720  14.244  1.00  0.00    +0.036 C 
ATOM     13  C   UNL     1      48.256  49.688  14.238  1.00  0.00    +0.008 C 
ATOM     14  C   UNL     1      49.149  49.445  15.451  1.00  0.00    +0.037 C 
ENDBRANCH   4   5
ENDBRANCH   3   4
ENDBRANCH   2   3
BRANCH   2  15
ATOM     15  O   UNL     1      48.347  53.839  16.881  1.00  0.00    -0.390 OA
ATOM     16  H   UNL     1      47.845  53.171  16.373  1.00  0.00    +0.211 HD
ENDBRANCH   2  15
ENDBRANCH   1   2
BRANCH   1  17
ATOM     17  S   UNL     1      51.596  54.104  19.095  1.00  0.00    -0.091 SA
BRANCH  17  18
ATOM     18  C   UNL     1      51.982  52.479  19.610  1.00  0.00    +0.176 A 
ATOM     19  N   UNL     1      51.895  52.129  20.874  1.00  0.00    -0.130 NA
ATOM     20  S   UNL     1      52.416  51.208  18.549  1.00  0.00    -0.069 S 
ATOM     21  N   UNL     1      52.227  50.800  21.061  1.00  0.00    -0.120 NA
ATOM     22  C   UNL     1      52.530  50.197  19.933  1.00  0.00    +0.203 A 
BRANCH  22  23
ATOM     23  N   UNL     1      52.876  48.899  19.832  1.00  0.00    -0.374 N 
ATOM     24  H   UNL     1      53.610  48.659  19.176  1.00  0.00    +0.159 HD
ATOM     25  H   UNL     1      52.100  48.244  19.833  1.00  0.00    +0.159 HD
ENDBRANCH  22  23
ENDBRANCH  17  18
ENDBRANCH   1  17
TORSDOF 8
ENDMDL
MODEL 5
REMARK VINA RESULT:    -7.326      4.785      8.023
REMARK INTER + INTRA:         -10.876
REMARK INTER:                 -10.445
REMARK INTRA:                  -0.431
REMARK UNBOUND:                -0.553
REMARK SMILES Nc1nnc(SC[C@H](O)CO[C@@H]2CCCc3ccccc32)s1
REMARK SMILES IDX 7 1 8 2 10 3 11 4 12 5 18 6 19 7 17 8 20 9 16 10 21 11 15 12
REMARK SMILES IDX 14 13 13 14 9 15 6 17 5 18 4 19 22 20 3 21 2 22 1 23
REMARK H PARENT 9 16 1 24 1 25
ROOT
ATOM      1  C   UNL     1      49.424  51.243  18.308  1.00  0.00    +0.111 C 
ENDROOT
BRANCH   1   2
ATOM      2  C   UNL     1      50.584  52.234  18.479  1.00  0.00    +0.150 C 
BRANCH   2   3
ATOM      3  C   UNL     1      50.967  52.546  19.934  1.00  0.00    +0.193 C 
BRANCH   3   4
ATOM      4  O   UNL     1      50.227  53.684  20.396  1.00  0.00    -0.371 OA
BRANCH   4   5
ATOM      5  C   UNL     1      50.681  54.940  19.871  1.00  0.00    +0.148 C 
ATOM      6  C   UNL     1      47.785  57.944  21.012  1.00  0.00    +0.000 A 
ATOM      7  C   UNL     1      47.531  57.092  19.944  1.00  0.00    +0.000 A 
ATOM      8  C   UNL     1      48.980  57.834  21.722  1.00  0.00    +0.004 A 
ATOM      9  C   UNL     1      48.474  56.129  19.582  1.00  0.00    +0.007 A 
ATOM     10  C   UNL     1      49.934  56.864  21.374  1.00  0.00    -0.042 A 
ATOM     11  C   UNL     1      49.686  56.007  20.283  1.00  0.00    -0.016 A 
ATOM     12  C   UNL     1      51.227  56.809  22.150  1.00  0.00    +0.036 C 
ATOM     13  C   UNL     1      52.026  55.530  21.917  1.00  0.00    +0.008 C 
ATOM     14  C   UNL     1      52.085  55.204  20.427  1.00  0.00    +0.037 C 
ENDBRANCH   4   5
ENDBRANCH   3   4
ENDBRANCH   2   3
BRANCH   2  15
ATOM     15  O   UNL     1      51.732  51.764  17.760  1.00  0.00    -0.390 OA
ATOM     16  H   UNL     1      51.639  52.097  16.844  1.00  0.00    +0.211 HD
ENDBRANCH   2  15
ENDBRANCH   1   2
BRANCH   1  17
ATOM     17  S   UNL     1      48.859  50.911  16.605  1.00  0.00    -0.091 SA
BRANCH  17  18
ATOM     18  C   UNL     1      47.654  49.675  16.882  1.00  0.00    +0.176 A 
ATOM     19  N   UNL     1      46.828  49.307  15.929  1.00  0.00    -0.130 NA
ATOM     20  S   UNL     1      47.490  48.799  18.343  1.00  0.00    -0.069 S 
ATOM     21  N   UNL     1      45.971  48.308  16.352  1.00  0.00    -0.120 NA
ATOM     22  C   UNL     1      46.196  47.950  17.597  1.00  0.00    +0.203 A 
BRANCH  22  23
ATOM     23  N   UNL     1      45.512  46.990  18.249  1.00  0.00    -0.374 N 
ATOM     24  H   UNL     1      44.706  46.590  17.784  1.00  0.00    +0.159 HD
ATOM     25  H   UNL     1      45.369  47.159  19.240  1.00  0.00    +0.159 HD
ENDBRANCH  22  23
ENDBRANCH  17  18
ENDBRANCH   1  17
TORSDOF 8
ENDMDL
