MODEL 1
REMARK VINA RESULT:    -7.764      0.000      0.000
REMARK INTER + INTRA:         -11.074
REMARK INTER:                 -10.487
REMARK INTRA:                  -0.587
REMARK UNBOUND:                -0.587
REMARK SMILES COCC/[NH+]=C(/N)NCC(C)(C)c1ccc(Cl)cc1
REMARK SMILES IDX 8 1 6 2 5 3 7 4 9 9 10 10 11 11 12 12 13 13 14 14 19 15
REMARK SMILES IDX 15 16 18 17 16 18 17 19 4 20 3 21 2 22 1 23
REMARK H PARENT 8 5 5 6 7 7 7 8
ROOT
ATOM      1  N   UNL     1      50.968  50.701  16.772  1.00  0.00    -0.277 N 
ATOM      2  C   UNL     1      52.269  50.824  17.085  1.00  0.00    +0.341 C 
ATOM      3  N   UNL     1      52.766  51.297  18.230  1.00  0.00    -0.276 N 
ATOM      4  N   UNL     1      53.159  50.430  16.149  1.00  0.00    -0.291 N 
ATOM      5  H   UNL     1      50.771  50.382  15.831  1.00  0.00    +0.260 HD
ATOM      6  H   UNL     1      53.774  51.242  18.360  1.00  0.00    +0.260 HD
ATOM      7  H   UNL     1      52.870  50.058  15.255  1.00  0.00    +0.256 HD
ATOM      8  H   UNL     1      54.157  50.499  16.312  1.00  0.00    +0.256 HD
ENDROOT
BRANCH   1   9
ATOM      9  C   UNL     1      49.784  50.936  17.628  1.00  0.00    +0.208 C 
BRANCH   9  10
ATOM     10  C   UNL     1      48.450  50.907  16.813  1.00  0.00    +0.020 C 
ATOM     11  C   UNL     1      47.916  52.357  16.742  1.00  0.00    +0.019 C 
ATOM     12  C   UNL     1      48.764  50.468  15.366  1.00  0.00    +0.019 C 
BRANCH  10  13
ATOM     13  C   UNL     1      47.457  49.911  17.441  1.00  0.00    -0.039 A 
ATOM     14  C   UNL     1      46.114  49.823  17.034  1.00  0.00    +0.006 A 
ATOM     15  C   UNL     1      47.881  49.043  18.469  1.00  0.00    +0.006 A 
ATOM     16  C   UNL     1      45.229  48.923  17.639  1.00  0.00    +0.021 A 
ATOM     17  C   UNL     1      46.997  48.143  19.075  1.00  0.00    +0.021 A 
ATOM     18  C   UNL     1      45.673  48.090  18.659  1.00  0.00    +0.041 A 
ATOM     19 Cl   UNL     1      44.581  46.994  19.408  1.00  0.00    -0.084 Cl
ENDBRANCH  10  13
ENDBRANCH   9  10
ENDBRANCH   1   9
BRANCH   3  20
ATOM     20  C   UNL     1      52.101  51.904  19.401  1.00  0.00    +0.225 C 
BRANCH  20  21
ATOM     21  C   UNL     1      52.339  51.021  20.631  1.00  0.00    +0.197 C 
BRANCH  21  22
ATOM     22  O   UNL     1      52.048  51.819  21.788  1.00  0.00    -0.381 OA
ATOM     23  C   UNL     1      51.732  53.161  21.422  1.00  0.00    +0.195 C 
ENDBRANCH  21  22
ENDBRANCH  20  21
ENDBRANCH   3  20
TORSDOF 6
ENDMDL
MODEL 2
REMARK VINA RESULT:    -7.488      3.953      6.367
REMARK INTER + INTRA:         -10.701
REMARK INTER:                 -10.100
REMARK INTRA:                  -0.601
REMARK UNBOUND:                -0.587
REMARK SMILES COCC/[NH+]=C(/N)NCC(C)(C)c1ccc(Cl)cc1
REMARK SMILES IDX 8 1 6 2 5 3 7 4 9 9 10 10 11 11 12 12 13 13 14 14 19 15
REMARK SMILES IDX 15 16 18 17 16 18 17 19 4 20 3 21 2 22 1 23
REMARK H PARENT 8 5 5 6 7 7 7 8
ROOT
ATOM      1  N   UNL     1      51.937  50.847  20.366  1.00  0.00    -0.277 N 
ATOM      2  C   UNL     1      51.936  49.589  19.891  1.00  0.00    +0.341 C 
ATOM      3  N   UNL     1      50.867  48.894  19.493  1.00  0.00    -0.276 N 
ATOM      4  N   UNL     1      53.132  48.969  19.808  1.00  0.00    -0.291 N 
ATOM      5  H   UNL     1      52.834  51.196  20.682  1.00  0.00    +0.260 HD
ATOM      6  H   UNL     1      51.034  47.985  19.068  1.00  0.00    +0.260 HD
ATOM      7  H   UNL     1      53.993  49.422  20.086  1.00  0.00    +0.256 HD
ATOM      8  H   UNL     1      53.209  48.019  19.466  1.00  0.00    +0.256 HD
ENDROOT
BRANCH   1   9
ATOM      9  C   UNL     1      50.811  51.802  20.457  1.00  0.00    +0.208 C 
BRANCH   9  10
ATOM     10  C   UNL     1      50.901  52.926  19.374  1.00  0.00    +0.020 C 
ATOM     11  C   UNL     1      52.388  53.062  18.967  1.00  0.00    +0.019 C 
ATOM     12  C   UNL     1      50.127  52.469  18.119  1.00  0.00    +0.019 C 
BRANCH  10  13
ATOM     13  C   UNL     1      50.282  54.234  19.904  1.00  0.00    -0.039 A 
ATOM     14  C   UNL     1      50.929  55.048  20.851  1.00  0.00    +0.006 A 
ATOM     15  C   UNL     1      49.018  54.655  19.442  1.00  0.00    +0.006 A 
ATOM     16  C   UNL     1      50.331  56.219  21.330  1.00  0.00    +0.021 A 
ATOM     17  C   UNL     1      48.420  55.826  19.921  1.00  0.00    +0.021 A 
ATOM     18  C   UNL     1      49.078  56.602  20.867  1.00  0.00    +0.041 A 
ATOM     19 Cl   UNL     1      48.342  58.034  21.465  1.00  0.00    -0.084 Cl
ENDBRANCH  10  13
ENDBRANCH   9  10
ENDBRANCH   1   9
BRANCH   3  20
ATOM     20  C   UNL     1      49.426  49.213  19.547  1.00  0.00    +0.225 C 
BRANCH  20  21
ATOM     21  C   UNL     1      48.752  48.722  18.260  1.00  0.00    +0.197 C 
BRANCH  21  22
ATOM     22  O   UNL     1      47.401  49.204  18.280  1.00  0.00    -0.381 OA
ATOM     23  C   UNL     1      46.482  48.153  18.574  1.00  0.00    +0.195 C 
ENDBRANCH  21  22
ENDBRANCH  20  21
ENDBRANCH   3  20
TORSDOF 6
ENDMDL
MODEL 3
REMARK VINA RESULT:    -6.794      2.318      2.956
REMARK INTER + INTRA:          -9.764
REMARK INTER:                  -9.233
REMARK INTRA:                  -0.532
REMARK UNBOUND:                -0.587
REMARK SMILES COCC/[NH+]=C(/N)NCC(C)(C)c1ccc(Cl)cc1
REMARK SMILES IDX 8 1 6 2 5 3 7 4 9 9 10 10 11 11 12 12 13 13 14 14 19 15
REMARK SMILES IDX 15 16 18 17 16 18 17 19 4 20 3 21 2 22 1 23
REMARK H PARENT 8 5 5 6 7 7 7 8
ROOT
ATOM      1  N   UNL     1      48.850  53.554  18.178  1.00  0.00    -0.277 N 
ATOM      2  C   UNL     1      49.487  54.628  18.676  1.00  0.00    +0.341 C 
ATOM      3  N   UNL     1      50.634  54.621  19.361  1.00  0.00    -0.276 N 
ATOM      4  N   UNL     1      48.911  55.830  18.463  1.00  0.00    -0.291 N 
ATOM      5  H   UNL     1      47.956  53.738  17.740  1.00  0.00    +0.260 HD
ATOM      6  H   UNL     1      51.044  55.523  19.593  1.00  0.00    +0.260 HD
ATOM      7  H   UNL     1      48.043  55.927  17.953  1.00  0.00    +0.256 HD
ATOM      8  H   UNL     1      49.330  56.683  18.814  1.00  0.00    +0.256 HD
ENDROOT
BRANCH   1   9
ATOM      9  C   UNL     1      49.296  52.144  18.152  1.00  0.00    +0.208 C 
BRANCH   9  10
ATOM     10  C   UNL     1      48.650  51.341  16.976  1.00  0.00    +0.020 C 
ATOM     11  C   UNL     1      47.967  52.363  16.035  1.00  0.00    +0.019 C 
ATOM     12  C   UNL     1      49.773  50.658  16.166  1.00  0.00    +0.019 C 
BRANCH  10  13
ATOM     13  C   UNL     1      47.692  50.265  17.522  1.00  0.00    -0.039 A 
ATOM     14  C   UNL     1      48.087  49.317  18.482  1.00  0.00    +0.006 A 
ATOM     15  C   UNL     1      46.361  50.201  17.058  1.00  0.00    +0.006 A 
ATOM     16  C   UNL     1      47.201  48.337  18.942  1.00  0.00    +0.021 A 
ATOM     17  C   UNL     1      45.475  49.222  17.517  1.00  0.00    +0.021 A 
ATOM     18  C   UNL     1      45.900  48.290  18.456  1.00  0.00    +0.041 A 
ATOM     19 Cl   UNL     1      44.817  47.079  19.015  1.00  0.00    -0.084 Cl
ENDBRANCH  10  13
ENDBRANCH   9  10
ENDBRANCH   1   9
BRANCH   3  20
ATOM     20  C   UNL     1      51.461  53.503  19.859  1.00  0.00    +0.225 C 
BRANCH  20  21
ATOM     21  C   UNL     1      51.657  53.656  21.372  1.00  0.00    +0.197 C 
BRANCH  21  22
ATOM     22  O   UNL     1      52.219  54.957  21.596  1.00  0.00    -0.381 OA
ATOM     23  C   UNL     1      51.736  55.525  22.813  1.00  0.00    +0.195 C 
ENDBRANCH  21  22
ENDBRANCH  20  21
ENDBRANCH   3  20
TORSDOF 6
ENDMDL
MODEL 4
REMARK VINA RESULT:    -6.591      2.795      4.252
REMARK INTER + INTRA:          -9.490
REMARK INTER:                  -8.840
REMARK INTRA:                  -0.650
REMARK UNBOUND:                -0.587
REMARK SMILES COCC/[NH+]=C(/N)NCC(C)(C)c1ccc(Cl)cc1
REMARK SMILES IDX 8 1 6 2 5 3 7 4 9 9 10 10 11 11 12 12 13 13 14 14 19 15
REMARK SMILES IDX 15 16 18 17 16 18 17 19 4 20 3 21 2 22 1 23
REMARK H PARENT 8 5 5 6 7 7 7 8
ROOT
ATOM      1  N   UNL     1      51.012  50.407  16.749  1.00  0.00    -0.277 N 
ATOM      2  C   UNL     1      52.281  50.721  17.058  1.00  0.00    +0.341 C 
ATOM      3  N   UNL     1      52.714  51.216  18.220  1.00  0.00    -0.276 N 
ATOM      4  N   UNL     1      53.209  50.515  16.099  1.00  0.00    -0.291 N 
ATOM      5  H   UNL     1      50.854  50.102  15.796  1.00  0.00    +0.260 HD
ATOM      6  H   UNL     1      53.719  51.316  18.340  1.00  0.00    +0.260 HD
ATOM      7  H   UNL     1      52.970  50.142  15.191  1.00  0.00    +0.256 HD
ATOM      8  H   UNL     1      54.185  50.734  16.258  1.00  0.00    +0.256 HD
ENDROOT
BRANCH   1   9
ATOM      9  C   UNL     1      49.818  50.413  17.623  1.00  0.00    +0.208 C 
BRANCH   9  10
ATOM     10  C   UNL     1      48.558  50.989  16.899  1.00  0.00    +0.020 C 
ATOM     11  C   UNL     1      48.617  50.526  15.423  1.00  0.00    +0.019 C 
ATOM     12  C   UNL     1      47.295  50.356  17.523  1.00  0.00    +0.019 C 
BRANCH  10  13
ATOM     13  C   UNL     1      48.494  52.519  17.065  1.00  0.00    -0.039 A 
ATOM     14  C   UNL     1      49.131  53.192  18.123  1.00  0.00    +0.006 A 
ATOM     15  C   UNL     1      47.774  53.302  16.139  1.00  0.00    +0.006 A 
ATOM     16  C   UNL     1      49.036  54.582  18.261  1.00  0.00    +0.021 A 
ATOM     17  C   UNL     1      47.678  54.691  16.277  1.00  0.00    +0.021 A 
ATOM     18  C   UNL     1      48.307  55.325  17.341  1.00  0.00    +0.041 A 
ATOM     19 Cl   UNL     1      48.184  57.030  17.519  1.00  0.00    -0.084 Cl
ENDBRANCH  10  13
ENDBRANCH   9  10
ENDBRANCH   1   9
BRANCH   3  20
ATOM     20  C   UNL     1      51.977  51.658  19.422  1.00  0.00    +0.225 C 
BRANCH  20  21
ATOM     21  C   UNL     1      52.161  50.620  20.536  1.00  0.00    +0.197 C 
BRANCH  21  22
ATOM     22  O   UNL     1      52.312  51.342  21.767  1.00  0.00    -0.381 OA
ATOM     23  C   UNL     1      51.556  52.552  21.751  1.00  0.00    +0.195 C 
ENDBRANCH  21  22
ENDBRANCH  20  21
ENDBRANCH   3  20
TORSDOF 6
ENDMDL
