MODEL 1
REMARK VINA RESULT:    -6.772      0.000      0.000
REMARK INTER + INTRA:         -10.674
REMARK INTER:                  -9.543
REMARK INTRA:                  -1.131
REMARK UNBOUND:                -1.131
REMARK SMILES CC(C)CCNC(=O)C1CC[NH+](CC(=O)NCC#N)CC1
REMARK SMILES IDX 6 1 7 2 8 3 5 5 4 6 2 7 1 8 3 9 9 10 10 11 21 12 11 13 20 14
REMARK SMILES IDX 12 15 13 17 14 18 15 19 16 20 17 22 18 23 19 24
REMARK H PARENT 6 4 12 16 16 21
ROOT
ATOM      1  N   UNL     1      49.888  54.871  20.358  1.00  0.00    -0.356 N 
ATOM      2  C   UNL     1      50.635  53.981  19.631  1.00  0.00    +0.223 C 
ATOM      3  O   UNL     1      50.378  53.641  18.478  1.00  0.00    -0.275 OA
ATOM      4  H   UNL     1      50.036  54.912  21.359  1.00  0.00    +0.163 HD
ENDROOT
BRANCH   1   5
ATOM      5  C   UNL     1      48.602  55.339  19.868  1.00  0.00    +0.116 C 
BRANCH   5   6
ATOM      6  C   UNL     1      48.616  56.819  19.488  1.00  0.00    +0.024 C 
BRANCH   6   7
ATOM      7  C   UNL     1      47.886  57.764  20.465  1.00  0.00    -0.016 C 
ATOM      8  C   UNL     1      47.410  59.050  19.791  1.00  0.00    +0.007 C 
ATOM      9  C   UNL     1      48.811  58.105  21.637  1.00  0.00    +0.007 C 
ENDBRANCH   6   7
ENDBRANCH   5   6
ENDBRANCH   1   5
BRANCH   2  10
ATOM     10  C   UNL     1      51.933  53.539  20.300  1.00  0.00    +0.089 C 
ATOM     11  C   UNL     1      52.735  52.695  19.298  1.00  0.00    +0.075 C 
ATOM     12  C   UNL     1      51.649  52.746  21.580  1.00  0.00    +0.075 C 
ATOM     13  C   UNL     1      52.426  51.197  19.355  1.00  0.00    +0.263 C 
ATOM     14  C   UNL     1      50.945  51.406  21.356  1.00  0.00    +0.263 C 
ATOM     15  N   UNL     1      51.060  50.960  19.928  1.00  0.00    -0.327 N 
ATOM     16  H   UNL     1      50.394  51.558  19.387  1.00  0.00    +0.348 HD
BRANCH  15  17
ATOM     17  C   UNL     1      50.529  49.551  19.700  1.00  0.00    +0.363 C 
BRANCH  17  18
ATOM     18  C   UNL     1      49.420  49.520  18.639  1.00  0.00    +0.276 C 
ATOM     19  O   UNL     1      48.864  48.467  18.337  1.00  0.00    -0.268 OA
ATOM     20  N   UNL     1      49.100  50.732  18.072  1.00  0.00    -0.338 N 
ATOM     21  H   UNL     1      49.721  51.526  18.185  1.00  0.00    +0.164 HD
BRANCH  20  22
ATOM     22  C   UNL     1      48.197  50.784  16.923  1.00  0.00    +0.237 C 
ATOM     23  C   UNL     1      48.008  52.169  16.459  1.00  0.00    +0.084 C 
ATOM     24  N   UNL     1      47.879  53.281  16.154  1.00  0.00    -0.196 NA
ENDBRANCH  20  22
ENDBRANCH  17  18
ENDBRANCH  15  17
ENDBRANCH   2  10
TORSDOF 7
ENDMDL
MODEL 2
REMARK VINA RESULT:    -6.446      1.508      3.965
REMARK INTER + INTRA:         -10.215
REMARK INTER:                  -9.562
REMARK INTRA:                  -0.653
REMARK UNBOUND:                -1.131
REMARK SMILES CC(C)CCNC(=O)C1CC[NH+](CC(=O)NCC#N)CC1
REMARK SMILES IDX 6 1 7 2 8 3 5 5 4 6 2 7 1 8 3 9 9 10 10 11 21 12 11 13 20 14
REMARK SMILES IDX 12 15 13 17 14 18 15 19 16 20 17 22 18 23 19 24
REMARK H PARENT 6 4 12 16 16 21
ROOT
ATOM      1  N   UNL     1      48.469  54.117  17.665  1.00  0.00    -0.356 N 
ATOM      2  C   UNL     1      49.013  52.895  17.364  1.00  0.00    +0.223 C 
ATOM      3  O   UNL     1      50.020  52.435  17.899  1.00  0.00    -0.275 OA
ATOM      4  H   UNL     1      47.791  54.508  17.022  1.00  0.00    +0.163 HD
ENDROOT
BRANCH   1   5
ATOM      5  C   UNL     1      49.174  55.055  18.523  1.00  0.00    +0.116 C 
BRANCH   5   6
ATOM      6  C   UNL     1      48.471  55.275  19.862  1.00  0.00    +0.024 C 
BRANCH   6   7
ATOM      7  C   UNL     1      48.016  56.721  20.145  1.00  0.00    -0.016 C 
ATOM      8  C   UNL     1      48.112  57.619  18.912  1.00  0.00    +0.007 C 
ATOM      9  C   UNL     1      48.857  57.311  21.281  1.00  0.00    +0.007 C 
ENDBRANCH   6   7
ENDBRANCH   5   6
ENDBRANCH   1   5
BRANCH   2  10
ATOM     10  C   UNL     1      48.185  52.044  16.407  1.00  0.00    +0.089 C 
ATOM     11  C   UNL     1      47.066  51.360  17.206  1.00  0.00    +0.075 C 
ATOM     12  C   UNL     1      49.060  51.008  15.694  1.00  0.00    +0.075 C 
ATOM     13  C   UNL     1      47.451  49.993  17.776  1.00  0.00    +0.263 C 
ATOM     14  C   UNL     1      49.661  49.943  16.614  1.00  0.00    +0.263 C 
ATOM     15  N   UNL     1      48.939  49.884  17.927  1.00  0.00    -0.327 N 
ATOM     16  H   UNL     1      49.254  50.723  18.465  1.00  0.00    +0.348 HD
BRANCH  15  17
ATOM     17  C   UNL     1      49.389  48.720  18.801  1.00  0.00    +0.363 C 
BRANCH  17  18
ATOM     18  C   UNL     1      50.351  49.172  19.909  1.00  0.00    +0.276 C 
ATOM     19  O   UNL     1      50.422  48.561  20.973  1.00  0.00    -0.268 OA
ATOM     20  N   UNL     1      51.113  50.282  19.624  1.00  0.00    -0.338 N 
ATOM     21  H   UNL     1      50.871  50.877  18.839  1.00  0.00    +0.164 HD
BRANCH  20  22
ATOM     22  C   UNL     1      51.917  50.905  20.675  1.00  0.00    +0.237 C 
ATOM     23  C   UNL     1      51.222  52.066  21.257  1.00  0.00    +0.084 C 
ATOM     24  N   UNL     1      50.637  52.984  21.659  1.00  0.00    -0.196 NA
ENDBRANCH  20  22
ENDBRANCH  17  18
ENDBRANCH  15  17
ENDBRANCH   2  10
TORSDOF 7
ENDMDL
MODEL 3
REMARK VINA RESULT:    -6.251      2.406      6.453
REMARK INTER + INTRA:          -9.939
REMARK INTER:                  -9.259
REMARK INTRA:                  -0.680
REMARK UNBOUND:                -1.131
REMARK SMILES CC(C)CCNC(=O)C1CC[NH+](CC(=O)NCC#N)CC1
REMARK SMILES IDX 6 1 7 2 8 3 5 5 4 6 2 7 1 8 3 9 9 10 10 11 21 12 11 13 20 14
REMARK SMILES IDX 12 15 13 17 14 18 15 19 16 20 17 22 18 23 19 24
REMARK H PARENT 6 4 12 16 16 21
ROOT
ATOM      1  N   UNL     1      50.296  49.549  18.320  1.00  0.00    -0.356 N 
ATOM      2  C   UNL     1      50.751  49.938  19.554  1.00  0.00    +0.223 C 
ATOM      3  O   UNL     1      50.184  49.679  20.614  1.00  0.00    -0.275 OA
ATOM      4  H   UNL     1      50.692  49.999  17.504  1.00  0.00    +0.163 HD
ENDROOT
BRANCH   1   5
ATOM      5  C   UNL     1      48.979  48.954  18.166  1.00  0.00    +0.116 C 
BRANCH   5   6
ATOM      6  C   UNL     1      47.883  49.995  17.942  1.00  0.00    +0.024 C 
BRANCH   6   7
ATOM      7  C   UNL     1      47.610  50.367  16.470  1.00  0.00    -0.016 C 
ATOM      8  C   UNL     1      48.052  49.276  15.496  1.00  0.00    +0.007 C 
ATOM      9  C   UNL     1      48.321  51.681  16.132  1.00  0.00    +0.007 C 
ENDBRANCH   6   7
ENDBRANCH   5   6
ENDBRANCH   1   5
BRANCH   2  10
ATOM     10  C   UNL     1      52.126  50.598  19.550  1.00  0.00    +0.089 C 
ATOM     11  C   UNL     1      52.404  51.153  20.955  1.00  0.00    +0.075 C 
ATOM     12  C   UNL     1      52.200  51.708  18.497  1.00  0.00    +0.075 C 
ATOM     13  C   UNL     1      51.931  52.594  21.162  1.00  0.00    +0.263 C 
ATOM     14  C   UNL     1      51.284  52.904  18.769  1.00  0.00    +0.263 C 
ATOM     15  N   UNL     1      50.832  52.933  20.199  1.00  0.00    -0.327 N 
ATOM     16  H   UNL     1      50.108  52.183  20.285  1.00  0.00    +0.348 HD
BRANCH  15  17
ATOM     17  C   UNL     1      50.066  54.200  20.555  1.00  0.00    +0.363 C 
BRANCH  17  18
ATOM     18  C   UNL     1      50.744  55.458  19.994  1.00  0.00    +0.276 C 
ATOM     19  O   UNL     1      50.425  55.913  18.898  1.00  0.00    -0.268 OA
ATOM     20  N   UNL     1      51.708  56.027  20.795  1.00  0.00    -0.338 N 
ATOM     21  H   UNL     1      52.091  55.506  21.577  1.00  0.00    +0.164 HD
BRANCH  20  22
ATOM     22  C   UNL     1      52.543  57.108  20.275  1.00  0.00    +0.237 C 
ATOM     23  C   UNL     1      53.608  57.462  21.230  1.00  0.00    +0.084 C 
ATOM     24  N   UNL     1      54.409  57.712  22.031  1.00  0.00    -0.196 NA
ENDBRANCH  20  22
ENDBRANCH  17  18
ENDBRANCH  15  17
ENDBRANCH   2  10
TORSDOF 7
ENDMDL
MODEL 4
REMARK VINA RESULT:    -6.115      2.447      5.681
REMARK INTER + INTRA:          -9.747
REMARK INTER:                  -9.206
REMARK INTRA:                  -0.541
REMARK UNBOUND:                -1.131
REMARK SMILES CC(C)CCNC(=O)C1CC[NH+](CC(=O)NCC#N)CC1
REMARK SMILES IDX 6 1 7 2 8 3 5 5 4 6 2 7 1 8 3 9 9 10 10 11 21 12 11 13 20 14
REMARK SMILES IDX 12 15 13 17 14 18 15 19 16 20 17 22 18 23 19 24
REMARK H PARENT 6 4 12 16 16 21
ROOT
ATOM      1  N   UNL     1      50.377  51.094  16.917  1.00  0.00    -0.356 N 
ATOM      2  C   UNL     1      50.776  50.804  18.196  1.00  0.00    +0.223 C 
ATOM      3  O   UNL     1      50.066  50.250  19.034  1.00  0.00    -0.275 OA
ATOM      4  H   UNL     1      50.934  51.749  16.382  1.00  0.00    +0.163 HD
ENDROOT
BRANCH   1   5
ATOM      5  C   UNL     1      48.990  50.933  16.516  1.00  0.00    +0.116 C 
BRANCH   5   6
ATOM      6  C   UNL     1      48.065  51.968  17.156  1.00  0.00    +0.024 C 
BRANCH   6   7
ATOM      7  C   UNL     1      48.491  53.441  16.981  1.00  0.00    -0.016 C 
ATOM      8  C   UNL     1      48.575  54.190  18.310  1.00  0.00    +0.007 C 
ATOM      9  C   UNL     1      47.508  54.152  16.047  1.00  0.00    +0.007 C 
ENDBRANCH   6   7
ENDBRANCH   5   6
ENDBRANCH   1   5
BRANCH   2  10
ATOM     10  C   UNL     1      52.249  51.076  18.485  1.00  0.00    +0.089 C 
ATOM     11  C   UNL     1      52.578  50.545  19.888  1.00  0.00    +0.075 C 
ATOM     12  C   UNL     1      52.563  52.572  18.378  1.00  0.00    +0.075 C 
ATOM     13  C   UNL     1      52.373  51.569  21.007  1.00  0.00    +0.263 C 
ATOM     14  C   UNL     1      51.876  53.443  19.432  1.00  0.00    +0.263 C 
ATOM     15  N   UNL     1      51.389  52.620  20.588  1.00  0.00    -0.327 N 
ATOM     16  H   UNL     1      50.536  52.122  20.245  1.00  0.00    +0.348 HD
BRANCH  15  17
ATOM     17  C   UNL     1      50.859  53.466  21.738  1.00  0.00    +0.363 C 
BRANCH  17  18
ATOM     18  C   UNL     1      50.864  54.964  21.400  1.00  0.00    +0.276 C 
ATOM     19  O   UNL     1      49.882  55.500  20.892  1.00  0.00    -0.268 OA
ATOM     20  N   UNL     1      52.020  55.644  21.707  1.00  0.00    -0.338 N 
ATOM     21  H   UNL     1      52.870  55.132  21.916  1.00  0.00    +0.164 HD
BRANCH  20  22
ATOM     22  C   UNL     1      52.198  57.022  21.253  1.00  0.00    +0.237 C 
ATOM     23  C   UNL     1      53.548  57.517  21.573  1.00  0.00    +0.084 C 
ATOM     24  N   UNL     1      54.616  57.857  21.872  1.00  0.00    -0.196 NA
ENDBRANCH  20  22
ENDBRANCH  17  18
ENDBRANCH  15  17
ENDBRANCH   2  10
TORSDOF 7
ENDMDL
MODEL 5
REMARK VINA RESULT:    -6.041      2.182      2.524
REMARK INTER + INTRA:          -9.643
REMARK INTER:                  -9.001
REMARK INTRA:                  -0.642
REMARK UNBOUND:                -1.131
REMARK SMILES CC(C)CCNC(=O)C1CC[NH+](CC(=O)NCC#N)CC1
REMARK SMILES IDX 6 1 7 2 8 3 5 5 4 6 2 7 1 8 3 9 9 10 10 11 21 12 11 13 20 14
REMARK SMILES IDX 12 15 13 17 14 18 15 19 16 20 17 22 18 23 19 24
REMARK H PARENT 6 4 12 16 16 21
ROOT
ATOM      1  N   UNL     1      49.972  54.331  20.155  1.00  0.00    -0.356 N 
ATOM      2  C   UNL     1      50.293  53.429  19.175  1.00  0.00    +0.223 C 
ATOM      3  O   UNL     1      49.789  53.416  18.053  1.00  0.00    -0.275 OA
ATOM      4  H   UNL     1      50.258  54.125  21.105  1.00  0.00    +0.163 HD
ENDROOT
BRANCH   1   5
ATOM      5  C   UNL     1      48.847  55.238  19.993  1.00  0.00    +0.116 C 
BRANCH   5   6
ATOM      6  C   UNL     1      49.241  56.705  20.160  1.00  0.00    +0.024 C 
BRANCH   6   7
ATOM      7  C   UNL     1      48.249  57.573  20.961  1.00  0.00    -0.016 C 
ATOM      8  C   UNL     1      47.503  58.576  20.080  1.00  0.00    +0.007 C 
ATOM      9  C   UNL     1      48.997  58.316  22.071  1.00  0.00    +0.007 C 
ENDBRANCH   6   7
ENDBRANCH   5   6
ENDBRANCH   1   5
BRANCH   2  10
ATOM     10  C   UNL     1      51.461  52.507  19.512  1.00  0.00    +0.089 C 
ATOM     11  C   UNL     1      52.144  52.086  18.202  1.00  0.00    +0.075 C 
ATOM     12  C   UNL     1      50.985  51.282  20.300  1.00  0.00    +0.075 C 
ATOM     13  C   UNL     1      51.571  50.809  17.582  1.00  0.00    +0.263 C 
ATOM     14  C   UNL     1      50.064  50.341  19.518  1.00  0.00    +0.263 C 
ATOM     15  N   UNL     1      50.161  50.584  18.041  1.00  0.00    -0.327 N 
ATOM     16  H   UNL     1      49.636  51.471  17.862  1.00  0.00    +0.348 HD
BRANCH  15  17
ATOM     17  C   UNL     1      49.398  49.554  17.218  1.00  0.00    +0.363 C 
BRANCH  17  18
ATOM     18  C   UNL     1      47.879  49.749  17.319  1.00  0.00    +0.276 C 
ATOM     19  O   UNL     1      47.366  50.843  17.097  1.00  0.00    -0.268 OA
ATOM     20  N   UNL     1      47.153  48.631  17.664  1.00  0.00    -0.338 N 
ATOM     21  H   UNL     1      47.624  47.819  18.048  1.00  0.00    +0.164 HD
BRANCH  20  22
ATOM     22  C   UNL     1      45.729  48.752  17.972  1.00  0.00    +0.237 C 
ATOM     23  C   UNL     1      44.902  48.236  16.868  1.00  0.00    +0.084 C 
ATOM     24  N   UNL     1      44.303  47.838  15.958  1.00  0.00    -0.196 NA
ENDBRANCH  20  22
ENDBRANCH  17  18
ENDBRANCH  15  17
ENDBRANCH   2  10
TORSDOF 7
ENDMDL
