MODEL 1
REMARK VINA RESULT:    -7.228      0.000      0.000
REMARK INTER + INTRA:          -9.889
REMARK INTER:                  -9.763
REMARK INTRA:                  -0.126
REMARK UNBOUND:                -0.126
REMARK SMILES CCCNC(=O)NC(C)(C)C(=O)NCC1(C)CCCC1
REMARK SMILES IDX 8 1 9 2 10 3 7 4 4 5 5 6 6 7 3 10 2 11 1 12 11 13 12 14
REMARK SMILES IDX 13 15 14 17 15 18 17 19 20 20 18 21 19 22 16 23
REMARK H PARENT 4 8 7 9 13 16
ROOT
ATOM      1  C   UNL     1      51.288  50.085  19.932  1.00  0.00    +0.115 C 
ATOM      2  C   UNL     1      50.582  48.902  20.618  1.00  0.00    +0.045 C 
ATOM      3  C   UNL     1      52.761  49.707  19.717  1.00  0.00    +0.045 C 
ENDROOT
BRANCH   1   4
ATOM      4  N   UNL     1      51.123  51.273  20.794  1.00  0.00    -0.324 N 
ATOM      5  N   UNL     1      51.367  53.449  21.389  1.00  0.00    -0.338 N 
ATOM      6  C   UNL     1      51.806  52.443  20.562  1.00  0.00    +0.315 C 
ATOM      7  O   UNL     1      52.721  52.572  19.762  1.00  0.00    -0.249 OA
ATOM      8  H   UNL     1      50.418  53.366  21.716  1.00  0.00    +0.165 HD
ATOM      9  H   UNL     1      50.156  51.445  21.030  1.00  0.00    +0.166 HD
BRANCH   5  10
ATOM     10  C   UNL     1      51.889  54.792  21.232  1.00  0.00    +0.117 C 
BRANCH  10  11
ATOM     11  C   UNL     1      51.573  55.653  22.449  1.00  0.00    +0.018 C 
ATOM     12  C   UNL     1      50.775  56.888  22.065  1.00  0.00    +0.006 C 
ENDBRANCH  10  11
ENDBRANCH   5  10
ENDBRANCH   1   4
BRANCH   1  13
ATOM     13  C   UNL     1      50.507  50.377  18.612  1.00  0.00    +0.245 C 
ATOM     14  O   UNL     1      51.074  50.843  17.620  1.00  0.00    -0.272 OA
ATOM     15  N   UNL     1      49.134  50.228  18.673  1.00  0.00    -0.354 N 
ATOM     16  H   UNL     1      48.778  49.582  19.363  1.00  0.00    +0.163 HD
BRANCH  15  17
ATOM     17  C   UNL     1      48.326  50.424  17.483  1.00  0.00    +0.122 C 
BRANCH  17  18
ATOM     18  C   UNL     1      47.824  49.102  16.854  1.00  0.00    -0.015 C 
ATOM     19  C   UNL     1      47.653  47.982  17.894  1.00  0.00    +0.008 C 
ATOM     20  C   UNL     1      46.374  49.269  16.360  1.00  0.00    +0.008 C 
ATOM     21  C   UNL     1      46.345  48.308  18.609  1.00  0.00    +0.001 C 
ATOM     22  C   UNL     1      45.499  49.082  17.599  1.00  0.00    +0.001 C 
ATOM     23  C   UNL     1      48.740  48.664  15.704  1.00  0.00    +0.013 C 
ENDBRANCH  17  18
ENDBRANCH  15  17
ENDBRANCH   1  13
TORSDOF 6
ENDMDL
MODEL 2
REMARK VINA RESULT:    -7.105      1.832      2.184
REMARK INTER + INTRA:          -9.723
REMARK INTER:                  -9.354
REMARK INTRA:                  -0.369
REMARK UNBOUND:                -0.126
REMARK SMILES CCCNC(=O)NC(C)(C)C(=O)NCC1(C)CCCC1
REMARK SMILES IDX 8 1 9 2 10 3 7 4 4 5 5 6 6 7 3 10 2 11 1 12 11 13 12 14
REMARK SMILES IDX 13 15 14 17 15 18 17 19 20 20 18 21 19 22 16 23
REMARK H PARENT 4 8 7 9 13 16
ROOT
ATOM      1  C   UNL     1      51.628  50.795  19.063  1.00  0.00    +0.115 C 
ATOM      2  C   UNL     1      52.583  49.975  19.948  1.00  0.00    +0.045 C 
ATOM      3  C   UNL     1      52.358  51.138  17.756  1.00  0.00    +0.045 C 
ENDROOT
BRANCH   1   4
ATOM      4  N   UNL     1      51.223  51.996  19.823  1.00  0.00    -0.324 N 
ATOM      5  N   UNL     1      50.020  53.874  20.239  1.00  0.00    -0.338 N 
ATOM      6  C   UNL     1      50.380  52.943  19.294  1.00  0.00    +0.315 C 
ATOM      7  O   UNL     1      50.026  52.992  18.125  1.00  0.00    -0.249 OA
ATOM      8  H   UNL     1      50.041  53.558  21.196  1.00  0.00    +0.165 HD
ATOM      9  H   UNL     1      50.992  51.783  20.783  1.00  0.00    +0.166 HD
BRANCH   5  10
ATOM     10  C   UNL     1      49.052  54.900  19.910  1.00  0.00    +0.117 C 
BRANCH  10  11
ATOM     11  C   UNL     1      49.347  56.197  20.655  1.00  0.00    +0.018 C 
ATOM     12  C   UNL     1      48.179  57.165  20.571  1.00  0.00    +0.006 C 
ENDBRANCH  10  11
ENDBRANCH   5  10
ENDBRANCH   1   4
BRANCH   1  13
ATOM     13  C   UNL     1      50.340  49.936  18.865  1.00  0.00    +0.245 C 
ATOM     14  O   UNL     1      49.832  49.314  19.802  1.00  0.00    -0.272 OA
ATOM     15  N   UNL     1      49.899  49.792  17.563  1.00  0.00    -0.354 N 
ATOM     16  H   UNL     1      50.144  50.529  16.917  1.00  0.00    +0.163 HD
BRANCH  15  17
ATOM     17  C   UNL     1      48.679  49.056  17.282  1.00  0.00    +0.122 C 
BRANCH  17  18
ATOM     18  C   UNL     1      47.679  49.837  16.396  1.00  0.00    -0.015 C 
ATOM     19  C   UNL     1      47.035  48.952  15.315  1.00  0.00    +0.008 C 
ATOM     20  C   UNL     1      46.443  50.237  17.224  1.00  0.00    +0.008 C 
ATOM     21  C   UNL     1      45.974  48.142  16.052  1.00  0.00    +0.001 C 
ATOM     22  C   UNL     1      45.549  48.997  17.246  1.00  0.00    +0.001 C 
ATOM     23  C   UNL     1      48.345  51.075  15.784  1.00  0.00    +0.013 C 
ENDBRANCH  17  18
ENDBRANCH  15  17
ENDBRANCH   1  13
TORSDOF 6
ENDMDL
MODEL 3
REMARK VINA RESULT:    -6.856      1.724      2.603
REMARK INTER + INTRA:          -9.386
REMARK INTER:                  -9.447
REMARK INTRA:                   0.061
REMARK UNBOUND:                -0.126
REMARK SMILES CCCNC(=O)NC(C)(C)C(=O)NCC1(C)CCCC1
REMARK SMILES IDX 8 1 9 2 10 3 7 4 4 5 5 6 6 7 3 10 2 11 1 12 11 13 12 14
REMARK SMILES IDX 13 15 14 17 15 18 17 19 20 20 18 21 19 22 16 23
REMARK H PARENT 4 8 7 9 13 16
ROOT
ATOM      1  C   UNL     1      51.499  52.132  20.105  1.00  0.00    +0.115 C 
ATOM      2  C   UNL     1      51.997  51.679  21.489  1.00  0.00    +0.045 C 
ATOM      3  C   UNL     1      52.716  52.557  19.271  1.00  0.00    +0.045 C 
ENDROOT
BRANCH   1   4
ATOM      4  N   UNL     1      50.533  53.230  20.308  1.00  0.00    -0.324 N 
ATOM      5  N   UNL     1      49.871  55.328  20.866  1.00  0.00    -0.338 N 
ATOM      6  C   UNL     1      50.880  54.399  20.942  1.00  0.00    +0.315 C 
ATOM      7  O   UNL     1      51.929  54.584  21.543  1.00  0.00    -0.249 OA
ATOM      8  H   UNL     1      49.249  55.237  20.078  1.00  0.00    +0.165 HD
ATOM      9  H   UNL     1      49.969  53.403  19.488  1.00  0.00    +0.166 HD
BRANCH   5  10
ATOM     10  C   UNL     1      50.079  56.665  21.384  1.00  0.00    +0.117 C 
BRANCH  10  11
ATOM     11  C   UNL     1      48.937  57.594  20.988  1.00  0.00    +0.018 C 
ATOM     12  C   UNL     1      47.843  56.846  20.244  1.00  0.00    +0.006 C 
ENDBRANCH  10  11
ENDBRANCH   5  10
ENDBRANCH   1   4
BRANCH   1  13
ATOM     13  C   UNL     1      50.697  50.938  19.498  1.00  0.00    +0.245 C 
ATOM     14  O   UNL     1      50.985  49.768  19.765  1.00  0.00    -0.272 OA
ATOM     15  N   UNL     1      49.757  51.263  18.537  1.00  0.00    -0.354 N 
ATOM     16  H   UNL     1      49.363  52.192  18.585  1.00  0.00    +0.163 HD
BRANCH  15  17
ATOM     17  C   UNL     1      48.923  50.228  17.952  1.00  0.00    +0.122 C 
BRANCH  17  18
ATOM     18  C   UNL     1      47.840  50.779  16.993  1.00  0.00    -0.015 C 
ATOM     19  C   UNL     1      48.142  50.460  15.520  1.00  0.00    +0.008 C 
ATOM     20  C   UNL     1      46.518  50.013  17.196  1.00  0.00    +0.008 C 
ATOM     21  C   UNL     1      47.755  48.995  15.348  1.00  0.00    +0.001 C 
ATOM     22  C   UNL     1      46.667  48.725  16.386  1.00  0.00    +0.001 C 
ATOM     23  C   UNL     1      47.633  52.282  17.212  1.00  0.00    +0.013 C 
ENDBRANCH  17  18
ENDBRANCH  15  17
ENDBRANCH   1  13
TORSDOF 6
ENDMDL
MODEL 4
REMARK VINA RESULT:    -6.853      1.543      6.882
REMARK INTER + INTRA:          -9.382
REMARK INTER:                  -9.175
REMARK INTRA:                  -0.207
REMARK UNBOUND:                -0.126
REMARK SMILES CCCNC(=O)NC(C)(C)C(=O)NCC1(C)CCCC1
REMARK SMILES IDX 8 1 9 2 10 3 7 4 4 5 5 6 6 7 3 10 2 11 1 12 11 13 12 14
REMARK SMILES IDX 13 15 14 17 15 18 17 19 20 20 18 21 19 22 16 23
REMARK H PARENT 4 8 7 9 13 16
ROOT
ATOM      1  C   UNL     1      51.908  50.676  19.305  1.00  0.00    +0.115 C 
ATOM      2  C   UNL     1      52.400  51.549  18.136  1.00  0.00    +0.045 C 
ATOM      3  C   UNL     1      53.007  49.657  19.641  1.00  0.00    +0.045 C 
ENDROOT
BRANCH   1   4
ATOM      4  N   UNL     1      50.643  50.036  18.891  1.00  0.00    -0.324 N 
ATOM      5  N   UNL     1      48.594  49.936  17.921  1.00  0.00    -0.338 N 
ATOM      6  C   UNL     1      49.590  50.760  18.386  1.00  0.00    +0.315 C 
ATOM      7  O   UNL     1      49.514  51.981  18.389  1.00  0.00    -0.249 OA
ATOM      8  H   UNL     1      48.887  49.019  17.622  1.00  0.00    +0.165 HD
ATOM      9  H   UNL     1      50.796  49.185  18.368  1.00  0.00    +0.166 HD
BRANCH   5  10
ATOM     10  C   UNL     1      47.439  50.503  17.254  1.00  0.00    +0.117 C 
BRANCH  10  11
ATOM     11  C   UNL     1      46.290  49.503  17.195  1.00  0.00    +0.018 C 
ATOM     12  C   UNL     1      46.327  48.541  18.371  1.00  0.00    +0.006 C 
ENDBRANCH  10  11
ENDBRANCH   5  10
ENDBRANCH   1   4
BRANCH   1  13
ATOM     13  C   UNL     1      51.557  51.644  20.478  1.00  0.00    +0.245 C 
ATOM     14  O   UNL     1      51.005  51.237  21.504  1.00  0.00    -0.272 OA
ATOM     15  N   UNL     1      51.760  52.990  20.237  1.00  0.00    -0.354 N 
ATOM     16  H   UNL     1      52.463  53.227  19.552  1.00  0.00    +0.163 HD
BRANCH  15  17
ATOM     17  C   UNL     1      51.514  53.964  21.285  1.00  0.00    +0.122 C 
BRANCH  17  18
ATOM     18  C   UNL     1      50.837  55.260  20.776  1.00  0.00    -0.015 C 
ATOM     19  C   UNL     1      50.824  56.373  21.836  1.00  0.00    +0.008 C 
ATOM     20  C   UNL     1      51.700  55.909  19.677  1.00  0.00    +0.008 C 
ATOM     21  C   UNL     1      52.241  56.938  21.829  1.00  0.00    +0.001 C 
ATOM     22  C   UNL     1      52.781  56.694  20.420  1.00  0.00    +0.001 C 
ATOM     23  C   UNL     1      49.426  54.966  20.253  1.00  0.00    +0.013 C 
ENDBRANCH  17  18
ENDBRANCH  15  17
ENDBRANCH   1  13
TORSDOF 6
ENDMDL
MODEL 5
REMARK VINA RESULT:    -5.765      8.757     11.800
REMARK INTER + INTRA:          -7.912
REMARK INTER:                  -7.920
REMARK INTRA:                   0.007
REMARK UNBOUND:                -0.126
REMARK SMILES CCCNC(=O)NC(C)(C)C(=O)NCC1(C)CCCC1
REMARK SMILES IDX 8 1 9 2 10 3 7 4 4 5 5 6 6 7 3 10 2 11 1 12 11 13 12 14
REMARK SMILES IDX 13 15 14 17 15 18 17 19 20 20 18 21 19 22 16 23
REMARK H PARENT 4 8 7 9 13 16
ROOT
ATOM      1  C   UNL     1      46.091  61.520  18.289  1.00  0.00    +0.115 C 
ATOM      2  C   UNL     1      44.667  61.220  18.789  1.00  0.00    +0.045 C 
ATOM      3  C   UNL     1      46.736  62.531  19.249  1.00  0.00    +0.045 C 
ENDROOT
BRANCH   1   4
ATOM      4  N   UNL     1      45.987  62.031  16.907  1.00  0.00    -0.324 N 
ATOM      5  N   UNL     1      45.685  63.603  15.298  1.00  0.00    -0.338 N 
ATOM      6  C   UNL     1      45.538  63.301  16.630  1.00  0.00    +0.315 C 
ATOM      7  O   UNL     1      45.026  64.055  17.445  1.00  0.00    -0.249 OA
ATOM      8  H   UNL     1      46.419  63.109  14.814  1.00  0.00    +0.165 HD
ATOM      9  H   UNL     1      46.792  61.788  16.346  1.00  0.00    +0.166 HD
BRANCH   5  10
ATOM     10  C   UNL     1      45.367  64.933  14.820  1.00  0.00    +0.117 C 
BRANCH  10  11
ATOM     11  C   UNL     1      43.954  64.990  14.250  1.00  0.00    +0.018 C 
ATOM     12  C   UNL     1      43.070  65.934  15.048  1.00  0.00    +0.006 C 
ENDBRANCH  10  11
ENDBRANCH   5  10
ENDBRANCH   1   4
BRANCH   1  13
ATOM     13  C   UNL     1      46.842  60.154  18.206  1.00  0.00    +0.245 C 
ATOM     14  O   UNL     1      46.648  59.370  17.273  1.00  0.00    -0.272 OA
ATOM     15  N   UNL     1      47.610  59.815  19.304  1.00  0.00    -0.354 N 
ATOM     16  H   UNL     1      47.966  60.578  19.861  1.00  0.00    +0.163 HD
BRANCH  15  17
ATOM     17  C   UNL     1      48.389  58.590  19.300  1.00  0.00    +0.122 C 
BRANCH  17  18
ATOM     18  C   UNL     1      48.051  57.639  20.474  1.00  0.00    -0.015 C 
ATOM     19  C   UNL     1      48.687  56.250  20.309  1.00  0.00    +0.008 C 
ATOM     20  C   UNL     1      48.739  58.128  21.762  1.00  0.00    +0.008 C 
ATOM     21  C   UNL     1      50.151  56.441  20.694  1.00  0.00    +0.001 C 
ATOM     22  C   UNL     1      50.175  57.610  21.678  1.00  0.00    +0.001 C 
ATOM     23  C   UNL     1      46.534  57.542  20.675  1.00  0.00    +0.013 C 
ENDBRANCH  17  18
ENDBRANCH  15  17
ENDBRANCH   1  13
TORSDOF 6
ENDMDL
