MODEL 1
REMARK VINA RESULT:   -10.116      0.000      0.000
REMARK INTER + INTRA:         -13.135
REMARK INTER:                 -13.072
REMARK INTRA:                  -0.063
REMARK UNBOUND:                -0.063
REMARK SMILES C[C@H]1CCC[C@H](NC(=O)CN2CC[NH+](Cc3nc4ccccc4c(=O)[nH]3)CC2)C1
REMARK SMILES IDX 11 1 12 2 13 3 14 4 27 5 28 6 10 8 8 9 7 10 9 11 6 13 2 14
REMARK SMILES IDX 3 15 29 16 4 17 5 18 1 19 15 20 16 21 26 22 17 23 24 24
REMARK SMILES IDX 18 25 25 26 23 27 19 28 22 29 20 30 21 31
REMARK H PARENT 14 7 7 12 26 32
ROOT
ATOM      1  N   UNL     1      51.278  50.633  17.855  1.00  0.00    -0.283 NA
ATOM      2  C   UNL     1      52.299  51.695  18.007  1.00  0.00    +0.146 C 
ATOM      3  C   UNL     1      52.218  52.480  19.328  1.00  0.00    +0.278 C 
ATOM      4  N   UNL     1      52.387  51.548  20.511  1.00  0.00    -0.327 N 
ATOM      5  C   UNL     1      51.911  50.123  20.251  1.00  0.00    +0.278 C 
ATOM      6  C   UNL     1      50.825  50.098  19.159  1.00  0.00    +0.146 C 
ATOM      7  H   UNL     1      53.403  51.447  20.685  1.00  0.00    +0.348 HD
ENDROOT
BRANCH   1   8
ATOM      8  C   UNL     1      50.099  51.081  17.069  1.00  0.00    +0.185 C 
BRANCH   8   9
ATOM      9  C   UNL     1      49.142  49.920  16.791  1.00  0.00    +0.234 C 
ATOM     10  N   UNL     1      47.981  49.959  17.531  1.00  0.00    -0.352 N 
ATOM     11  O   UNL     1      49.432  49.028  15.999  1.00  0.00    -0.274 OA
ATOM     12  H   UNL     1      47.983  50.557  18.349  1.00  0.00    +0.163 HD
BRANCH  10  13
ATOM     13  C   UNL     1      47.017  48.869  17.489  1.00  0.00    +0.082 C 
ATOM     14  C   UNL     1      44.651  48.211  16.804  1.00  0.00    -0.012 C 
ATOM     15  C   UNL     1      44.936  47.035  17.756  1.00  0.00    +0.003 C 
ATOM     16  C   UNL     1      45.669  49.359  16.958  1.00  0.00    +0.028 C 
ATOM     17  C   UNL     1      45.520  47.518  19.076  1.00  0.00    +0.002 C 
ATOM     18  C   UNL     1      46.866  48.221  18.876  1.00  0.00    +0.025 C 
ATOM     19  C   UNL     1      44.588  47.712  15.358  1.00  0.00    +0.008 C 
ENDBRANCH  10  13
ENDBRANCH   8   9
ENDBRANCH   1   8
BRANCH   4  20
ATOM     20  C   UNL     1      51.871  52.146  21.809  1.00  0.00    +0.338 C 
BRANCH  20  21
ATOM     21  C   UNL     1      51.264  53.522  21.557  1.00  0.00    +0.165 C 
ATOM     22  N   UNL     1      51.894  54.602  22.104  1.00  0.00    -0.305 N 
ATOM     23  N   UNL     1      50.186  53.599  20.841  1.00  0.00    -0.229 NA
ATOM     24  C   UNL     1      51.447  55.891  21.937  1.00  0.00    +0.258 C 
ATOM     25  C   UNL     1      49.638  54.880  20.625  1.00  0.00    +0.078 A 
ATOM     26  O   UNL     1      52.051  56.837  22.424  1.00  0.00    -0.269 OA
ATOM     27  C   UNL     1      50.221  56.045  21.140  1.00  0.00    +0.065 A 
ATOM     28  C   UNL     1      48.471  54.998  19.867  1.00  0.00    +0.029 A 
ATOM     29  C   UNL     1      49.665  57.304  20.908  1.00  0.00    +0.016 A 
ATOM     30  C   UNL     1      47.905  56.254  19.630  1.00  0.00    +0.002 A 
ATOM     31  C   UNL     1      48.500  57.405  20.149  1.00  0.00    +0.001 A 
ATOM     32  H   UNL     1      52.732  54.531  22.670  1.00  0.00    +0.171 HD
ENDBRANCH  20  21
ENDBRANCH   4  20
TORSDOF 5
ENDMDL
MODEL 2
REMARK VINA RESULT:    -9.757      1.861      8.429
REMARK INTER + INTRA:         -12.672
REMARK INTER:                 -12.376
REMARK INTRA:                  -0.296
REMARK UNBOUND:                -0.063
REMARK SMILES C[C@H]1CCC[C@H](NC(=O)CN2CC[NH+](Cc3nc4ccccc4c(=O)[nH]3)CC2)C1
REMARK SMILES IDX 11 1 12 2 13 3 14 4 27 5 28 6 10 8 8 9 7 10 9 11 6 13 2 14
REMARK SMILES IDX 3 15 29 16 4 17 5 18 1 19 15 20 16 21 26 22 17 23 24 24
REMARK SMILES IDX 18 25 25 26 23 27 19 28 22 29 20 30 21 31
REMARK H PARENT 14 7 7 12 26 32
ROOT
ATOM      1  N   UNL     1      52.421  50.551  19.760  1.00  0.00    -0.283 NA
ATOM      2  C   UNL     1      51.627  49.309  19.905  1.00  0.00    +0.146 C 
ATOM      3  C   UNL     1      50.123  49.471  19.624  1.00  0.00    +0.278 C 
ATOM      4  N   UNL     1      49.897  49.963  18.209  1.00  0.00    -0.327 N 
ATOM      5  C   UNL     1      51.038  50.811  17.658  1.00  0.00    +0.278 C 
ATOM      6  C   UNL     1      51.812  51.498  18.798  1.00  0.00    +0.146 C 
ATOM      7  H   UNL     1      49.878  49.132  17.590  1.00  0.00    +0.348 HD
ENDROOT
BRANCH   1   8
ATOM      8  C   UNL     1      52.646  51.241  21.056  1.00  0.00    +0.185 C 
BRANCH   8   9
ATOM      9  C   UNL     1      51.557  52.279  21.330  1.00  0.00    +0.234 C 
ATOM     10  N   UNL     1      51.885  53.557  20.935  1.00  0.00    -0.352 N 
ATOM     11  O   UNL     1      50.508  51.972  21.889  1.00  0.00    -0.274 OA
ATOM     12  H   UNL     1      52.867  53.743  20.767  1.00  0.00    +0.163 HD
BRANCH  10  13
ATOM     13  C   UNL     1      51.022  54.689  21.235  1.00  0.00    +0.082 C 
ATOM     14  C   UNL     1      49.589  56.538  20.219  1.00  0.00    -0.012 C 
ATOM     15  C   UNL     1      49.735  57.130  21.633  1.00  0.00    +0.003 C 
ATOM     16  C   UNL     1      50.587  55.394  19.949  1.00  0.00    +0.028 C 
ATOM     17  C   UNL     1      51.184  57.100  22.101  1.00  0.00    +0.002 C 
ATOM     18  C   UNL     1      51.719  55.668  22.196  1.00  0.00    +0.025 C 
ATOM     19  C   UNL     1      48.146  56.086  19.986  1.00  0.00    +0.008 C 
ENDBRANCH  10  13
ENDBRANCH   8   9
ENDBRANCH   1   8
BRANCH   4  20
ATOM     20  C   UNL     1      48.520  50.575  18.011  1.00  0.00    +0.338 C 
BRANCH  20  21
ATOM     21  C   UNL     1      47.535  49.519  17.520  1.00  0.00    +0.165 C 
ATOM     22  N   UNL     1      46.860  48.796  18.460  1.00  0.00    -0.305 N 
ATOM     23  N   UNL     1      47.387  49.361  16.241  1.00  0.00    -0.229 NA
ATOM     24  C   UNL     1      45.941  47.826  18.139  1.00  0.00    +0.258 C 
ATOM     25  C   UNL     1      46.476  48.377  15.808  1.00  0.00    +0.078 A 
ATOM     26  O   UNL     1      45.339  47.213  19.009  1.00  0.00    -0.269 OA
ATOM     27  C   UNL     1      45.734  47.593  16.702  1.00  0.00    +0.065 A 
ATOM     28  C   UNL     1      46.300  48.172  14.438  1.00  0.00    +0.029 A 
ATOM     29  C   UNL     1      44.832  46.627  16.251  1.00  0.00    +0.016 A 
ATOM     30  C   UNL     1      45.400  47.207  13.976  1.00  0.00    +0.002 A 
ATOM     31  C   UNL     1      44.667  46.436  14.879  1.00  0.00    +0.001 A 
ATOM     32  H   UNL     1      46.989  48.920  19.457  1.00  0.00    +0.171 HD
ENDBRANCH  20  21
ENDBRANCH   4  20
TORSDOF 5
ENDMDL
MODEL 3
REMARK VINA RESULT:    -9.656      1.896      2.897
REMARK INTER + INTRA:         -12.541
REMARK INTER:                 -12.121
REMARK INTRA:                  -0.420
REMARK UNBOUND:                -0.063
REMARK SMILES C[C@H]1CCC[C@H](NC(=O)CN2CC[NH+](Cc3nc4ccccc4c(=O)[nH]3)CC2)C1
REMARK SMILES IDX 11 1 12 2 13 3 14 4 27 5 28 6 10 8 8 9 7 10 9 11 6 13 2 14
REMARK SMILES IDX 3 15 29 16 4 17 5 18 1 19 15 20 16 21 26 22 17 23 24 24
REMARK SMILES IDX 18 25 25 26 23 27 19 28 22 29 20 30 21 31
REMARK H PARENT 14 7 7 12 26 32
ROOT
ATOM      1  N   UNL     1      48.696  50.174  16.973  1.00  0.00    -0.283 NA
ATOM      2  C   UNL     1      49.074  49.969  18.391  1.00  0.00    +0.146 C 
ATOM      3  C   UNL     1      50.222  50.866  18.885  1.00  0.00    +0.278 C 
ATOM      4  N   UNL     1      49.851  52.329  18.747  1.00  0.00    -0.327 N 
ATOM      5  C   UNL     1      48.876  52.616  17.610  1.00  0.00    +0.278 C 
ATOM      6  C   UNL     1      48.991  51.548  16.506  1.00  0.00    +0.146 C 
ATOM      7  H   UNL     1      49.330  52.599  19.601  1.00  0.00    +0.348 HD
ENDROOT
BRANCH   1   8
ATOM      8  C   UNL     1      49.340  49.194  16.061  1.00  0.00    +0.185 C 
BRANCH   8   9
ATOM      9  C   UNL     1      48.393  48.040  15.726  1.00  0.00    +0.234 C 
ATOM     10  N   UNL     1      47.280  48.417  15.008  1.00  0.00    -0.352 N 
ATOM     11  O   UNL     1      48.618  46.896  16.111  1.00  0.00    -0.274 OA
ATOM     12  H   UNL     1      47.051  49.404  15.008  1.00  0.00    +0.163 HD
BRANCH  10  13
ATOM     13  C   UNL     1      46.211  47.473  14.715  1.00  0.00    +0.082 C 
ATOM     14  C   UNL     1      44.545  46.703  12.945  1.00  0.00    -0.012 C 
ATOM     15  C   UNL     1      43.872  46.058  14.170  1.00  0.00    +0.003 C 
ATOM     16  C   UNL     1      45.613  47.745  13.334  1.00  0.00    +0.028 C 
ATOM     17  C   UNL     1      43.754  47.046  15.323  1.00  0.00    +0.002 C 
ATOM     18  C   UNL     1      45.129  47.516  15.808  1.00  0.00    +0.025 C 
ATOM     19  C   UNL     1      45.130  45.619  12.036  1.00  0.00    +0.008 C 
ENDBRANCH  10  13
ENDBRANCH   8   9
ENDBRANCH   1   8
BRANCH   4  20
ATOM     20  C   UNL     1      51.060  53.248  18.772  1.00  0.00    +0.338 C 
BRANCH  20  21
ATOM     21  C   UNL     1      50.799  54.446  19.679  1.00  0.00    +0.165 C 
ATOM     22  N   UNL     1      51.765  54.780  20.582  1.00  0.00    -0.305 N 
ATOM     23  N   UNL     1      49.677  55.085  19.548  1.00  0.00    -0.229 NA
ATOM     24  C   UNL     1      51.647  55.845  21.443  1.00  0.00    +0.258 C 
ATOM     25  C   UNL     1      49.453  56.186  20.400  1.00  0.00    +0.078 A 
ATOM     26  O   UNL     1      52.545  56.128  22.225  1.00  0.00    -0.269 OA
ATOM     27  C   UNL     1      50.392  56.606  21.350  1.00  0.00    +0.065 A 
ATOM     28  C   UNL     1      48.252  56.890  20.293  1.00  0.00    +0.029 A 
ATOM     29  C   UNL     1      50.152  57.704  22.179  1.00  0.00    +0.016 A 
ATOM     30  C   UNL     1      48.000  57.989  21.120  1.00  0.00    +0.002 A 
ATOM     31  C   UNL     1      48.948  58.396  22.060  1.00  0.00    +0.001 A 
ATOM     32  H   UNL     1      52.635  54.270  20.682  1.00  0.00    +0.171 HD
ENDBRANCH  20  21
ENDBRANCH   4  20
TORSDOF 5
ENDMDL
MODEL 4
REMARK VINA RESULT:    -9.490      2.405      7.905
REMARK INTER + INTRA:         -12.327
REMARK INTER:                 -11.762
REMARK INTRA:                  -0.565
REMARK UNBOUND:                -0.063
REMARK SMILES C[C@H]1CCC[C@H](NC(=O)CN2CC[NH+](Cc3nc4ccccc4c(=O)[nH]3)CC2)C1
REMARK SMILES IDX 11 1 12 2 13 3 14 4 27 5 28 6 10 8 8 9 7 10 9 11 6 13 2 14
REMARK SMILES IDX 3 15 29 16 4 17 5 18 1 19 15 20 16 21 26 22 17 23 24 24
REMARK SMILES IDX 18 25 25 26 23 27 19 28 22 29 20 30 21 31
REMARK H PARENT 14 7 7 12 26 32
ROOT
ATOM      1  N   UNL     1      50.829  54.962  20.567  1.00  0.00    -0.283 NA
ATOM      2  C   UNL     1      51.133  53.789  21.419  1.00  0.00    +0.146 C 
ATOM      3  C   UNL     1      51.278  52.461  20.655  1.00  0.00    +0.278 C 
ATOM      4  N   UNL     1      52.395  52.553  19.635  1.00  0.00    -0.327 N 
ATOM      5  C   UNL     1      52.628  53.960  19.097  1.00  0.00    +0.278 C 
ATOM      6  C   UNL     1      51.341  54.802  19.187  1.00  0.00    +0.146 C 
ATOM      7  H   UNL     1      53.280  52.319  20.122  1.00  0.00    +0.348 HD
ENDROOT
BRANCH   1   8
ATOM      8  C   UNL     1      49.377  55.275  20.521  1.00  0.00    +0.185 C 
BRANCH   8   9
ATOM      9  C   UNL     1      49.134  56.728  20.111  1.00  0.00    +0.234 C 
ATOM     10  N   UNL     1      48.055  56.904  19.274  1.00  0.00    -0.352 N 
ATOM     11  O   UNL     1      49.878  57.630  20.484  1.00  0.00    -0.274 OA
ATOM     12  H   UNL     1      47.707  56.077  18.801  1.00  0.00    +0.163 HD
BRANCH  10  13
ATOM     13  C   UNL     1      47.756  58.200  18.683  1.00  0.00    +0.082 C 
ATOM     14  C   UNL     1      46.461  60.375  18.989  1.00  0.00    -0.012 C 
ATOM     15  C   UNL     1      46.735  60.497  17.479  1.00  0.00    +0.003 C 
ATOM     16  C   UNL     1      46.729  58.956  19.528  1.00  0.00    +0.028 C 
ATOM     17  C   UNL     1      46.402  59.204  16.747  1.00  0.00    +0.002 C 
ATOM     18  C   UNL     1      47.272  58.040  17.231  1.00  0.00    +0.025 C 
ATOM     19  C   UNL     1      47.270  61.424  19.756  1.00  0.00    +0.008 C 
ENDBRANCH  10  13
ENDBRANCH   8   9
ENDBRANCH   1   8
BRANCH   4  20
ATOM     20  C   UNL     1      52.299  51.486  18.559  1.00  0.00    +0.338 C 
BRANCH  20  21
ATOM     21  C   UNL     1      50.841  51.228  18.194  1.00  0.00    +0.165 C 
ATOM     22  N   UNL     1      50.220  52.133  17.384  1.00  0.00    -0.305 N 
ATOM     23  N   UNL     1      50.265  50.167  18.670  1.00  0.00    -0.229 NA
ATOM     24  C   UNL     1      48.913  52.001  16.980  1.00  0.00    +0.258 C 
ATOM     25  C   UNL     1      48.915  49.950  18.326  1.00  0.00    +0.078 A 
ATOM     26  O   UNL     1      48.396  52.822  16.234  1.00  0.00    -0.269 OA
ATOM     27  C   UNL     1      48.201  50.822  17.494  1.00  0.00    +0.065 A 
ATOM     28  C   UNL     1      48.261  48.824  18.830  1.00  0.00    +0.029 A 
ATOM     29  C   UNL     1      46.866  50.584  17.161  1.00  0.00    +0.016 A 
ATOM     30  C   UNL     1      46.924  48.577  18.505  1.00  0.00    +0.002 A 
ATOM     31  C   UNL     1      46.227  49.454  17.671  1.00  0.00    +0.001 A 
ATOM     32  H   UNL     1      50.676  52.963  17.024  1.00  0.00    +0.171 HD
ENDBRANCH  20  21
ENDBRANCH   4  20
TORSDOF 5
ENDMDL
MODEL 5
REMARK VINA RESULT:    -9.121      3.321      9.269
REMARK INTER + INTRA:         -11.850
REMARK INTER:                 -11.310
REMARK INTRA:                  -0.541
REMARK UNBOUND:                -0.063
REMARK SMILES C[C@H]1CCC[C@H](NC(=O)CN2CC[NH+](Cc3nc4ccccc4c(=O)[nH]3)CC2)C1
REMARK SMILES IDX 11 1 12 2 13 3 14 4 27 5 28 6 10 8 8 9 7 10 9 11 6 13 2 14
REMARK SMILES IDX 3 15 29 16 4 17 5 18 1 19 15 20 16 21 26 22 17 23 24 24
REMARK SMILES IDX 18 25 25 26 23 27 19 28 22 29 20 30 21 31
REMARK H PARENT 14 7 7 12 26 32
ROOT
ATOM      1  N   UNL     1      48.954  56.102  20.207  1.00  0.00    -0.283 NA
ATOM      2  C   UNL     1      48.013  55.156  19.563  1.00  0.00    +0.146 C 
ATOM      3  C   UNL     1      48.671  54.144  18.610  1.00  0.00    +0.278 C 
ATOM      4  N   UNL     1      49.689  53.300  19.351  1.00  0.00    -0.327 N 
ATOM      5  C   UNL     1      50.332  54.007  20.539  1.00  0.00    +0.278 C 
ATOM      6  C   UNL     1      50.315  55.534  20.344  1.00  0.00    +0.146 C 
ATOM      7  H   UNL     1      49.181  52.503  19.777  1.00  0.00    +0.348 HD
ENDROOT
BRANCH   1   8
ATOM      8  C   UNL     1      49.032  57.404  19.497  1.00  0.00    +0.185 C 
BRANCH   8   9
ATOM      9  C   UNL     1      47.886  58.331  19.907  1.00  0.00    +0.234 C 
ATOM     10  N   UNL     1      47.489  59.206  18.920  1.00  0.00    -0.352 N 
ATOM     11  O   UNL     1      47.409  58.296  21.038  1.00  0.00    -0.274 OA
ATOM     12  H   UNL     1      48.136  59.349  18.153  1.00  0.00    +0.163 HD
BRANCH  10  13
ATOM     13  C   UNL     1      46.502  60.244  19.179  1.00  0.00    +0.082 C 
ATOM     14  C   UNL     1      44.594  61.597  18.163  1.00  0.00    -0.012 C 
ATOM     15  C   UNL     1      44.884  62.506  19.372  1.00  0.00    +0.003 C 
ATOM     16  C   UNL     1      45.719  60.574  17.907  1.00  0.00    +0.028 C 
ATOM     17  C   UNL     1      46.374  62.786  19.512  1.00  0.00    +0.002 C 
ATOM     18  C   UNL     1      47.171  61.501  19.761  1.00  0.00    +0.025 C 
ATOM     19  C   UNL     1      43.241  60.906  18.338  1.00  0.00    +0.008 C 
ENDBRANCH  10  13
ENDBRANCH   8   9
ENDBRANCH   1   8
BRANCH   4  20
ATOM     20  C   UNL     1      50.681  52.623  18.422  1.00  0.00    +0.338 C 
BRANCH  20  21
ATOM     21  C   UNL     1      50.049  51.397  17.771  1.00  0.00    +0.165 C 
ATOM     22  N   UNL     1      50.464  51.061  16.515  1.00  0.00    -0.305 N 
ATOM     23  N   UNL     1      49.152  50.738  18.438  1.00  0.00    -0.229 NA
ATOM     24  C   UNL     1      49.975  49.973  15.833  1.00  0.00    +0.258 C 
ATOM     25  C   UNL     1      48.576  49.612  17.815  1.00  0.00    +0.078 A 
ATOM     26  O   UNL     1      50.388  49.690  14.716  1.00  0.00    -0.269 OA
ATOM     27  C   UNL     1      48.947  49.188  16.533  1.00  0.00    +0.065 A 
ATOM     28  C   UNL     1      47.600  48.885  18.501  1.00  0.00    +0.029 A 
ATOM     29  C   UNL     1      48.368  48.065  15.938  1.00  0.00    +0.016 A 
ATOM     30  C   UNL     1      47.012  47.760  17.914  1.00  0.00    +0.002 A 
ATOM     31  C   UNL     1      47.395  47.351  16.636  1.00  0.00    +0.001 A 
ATOM     32  H   UNL     1      51.159  51.587  15.998  1.00  0.00    +0.171 HD
ENDBRANCH  20  21
ENDBRANCH   4  20
TORSDOF 5
ENDMDL
