MODEL 1
REMARK VINA RESULT:    -8.833      0.000      0.000
REMARK INTER + INTRA:         -13.558
REMARK INTER:                 -12.448
REMARK INTRA:                  -1.110
REMARK UNBOUND:                -1.110
REMARK SMILES NC(=O)COc1ccccc1C(=O)NNC(=O)CC1CCCCC1
REMARK SMILES IDX 9 1 8 2 7 3 6 4 11 5 10 6 12 7 13 8 14 9 15 11 16 12 17 13
REMARK SMILES IDX 18 15 19 16 20 17 24 18 21 19 23 20 22 21 5 22 4 23 2 24
REMARK SMILES IDX 3 25 1 26
REMARK H PARENT 14 10 15 14 1 27 1 28
ROOT
ATOM      1  C   UNL     1      50.964  55.787  21.637  1.00  0.00    +0.001 A 
ATOM      2  C   UNL     1      51.603  54.886  22.487  1.00  0.00    +0.004 A 
ATOM      3  C   UNL     1      51.607  53.517  22.197  1.00  0.00    +0.047 A 
ATOM      4  C   UNL     1      50.962  53.049  21.052  1.00  0.00    +0.132 A 
ATOM      5  C   UNL     1      50.360  53.963  20.167  1.00  0.00    +0.083 A 
ATOM      6  C   UNL     1      50.339  55.328  20.478  1.00  0.00    +0.018 A 
ENDROOT
BRANCH   5   7
ATOM      7  C   UNL     1      49.711  53.526  18.898  1.00  0.00    +0.273 C 
ATOM      8  O   UNL     1      48.596  53.931  18.581  1.00  0.00    -0.267 OA
ATOM      9  N   UNL     1      50.441  52.639  18.120  1.00  0.00    -0.263 N 
ATOM     10  H   UNL     1      51.222  52.148  18.566  1.00  0.00    +0.191 HD
BRANCH   9  11
ATOM     11  N   UNL     1      49.717  51.864  17.194  1.00  0.00    -0.267 N 
ATOM     12  C   UNL     1      49.323  50.605  17.627  1.00  0.00    +0.238 C 
ATOM     13  O   UNL     1      49.750  50.070  18.651  1.00  0.00    -0.273 OA
ATOM     14  H   UNL     1      49.076  52.412  16.612  1.00  0.00    +0.191 HD
BRANCH  12  15
ATOM     15  C   UNL     1      48.284  49.990  16.706  1.00  0.00    +0.105 C 
BRANCH  15  16
ATOM     16  C   UNL     1      47.815  48.597  17.165  1.00  0.00    -0.002 C 
ATOM     17  C   UNL     1      47.404  47.699  15.989  1.00  0.00    +0.004 C 
ATOM     18  C   UNL     1      46.656  48.712  18.170  1.00  0.00    +0.004 C 
ATOM     19  C   UNL     1      46.085  48.115  15.337  1.00  0.00    +0.000 C 
ATOM     20  C   UNL     1      45.340  49.145  17.520  1.00  0.00    +0.000 C 
ATOM     21  C   UNL     1      44.963  48.233  16.358  1.00  0.00    +0.000 C 
ENDBRANCH  15  16
ENDBRANCH  12  15
ENDBRANCH   9  11
ENDBRANCH   5   7
BRANCH   4  22
ATOM     22  O   UNL     1      50.956  51.732  20.693  1.00  0.00    -0.483 OA
BRANCH  22  23
ATOM     23  C   UNL     1      52.096  50.949  21.058  1.00  0.00    +0.329 C 
BRANCH  23  24
ATOM     24  C   UNL     1      52.594  50.281  19.792  1.00  0.00    +0.255 C 
ATOM     25  O   UNL     1      52.901  50.894  18.770  1.00  0.00    -0.271 OA
ATOM     26  N   UNL     1      52.713  48.916  19.874  1.00  0.00    -0.367 N 
ATOM     27  H   UNL     1      52.960  48.403  19.034  1.00  0.00    +0.159 HD
ATOM     28  H   UNL     1      52.398  48.399  20.696  1.00  0.00    +0.159 HD
ENDBRANCH  23  24
ENDBRANCH  22  23
ENDBRANCH   4  22
TORSDOF 7
ENDMDL
MODEL 2
REMARK VINA RESULT:    -8.594      2.081      2.796
REMARK INTER + INTRA:         -13.221
REMARK INTER:                 -11.989
REMARK INTRA:                  -1.232
REMARK UNBOUND:                -1.110
REMARK SMILES NC(=O)COc1ccccc1C(=O)NNC(=O)CC1CCCCC1
REMARK SMILES IDX 9 1 8 2 7 3 6 4 11 5 10 6 12 7 13 8 14 9 15 11 16 12 17 13
REMARK SMILES IDX 18 15 19 16 20 17 24 18 21 19 23 20 22 21 5 22 4 23 2 24
REMARK SMILES IDX 3 25 1 26
REMARK H PARENT 14 10 15 14 1 27 1 28
ROOT
ATOM      1  C   UNL     1      47.924  58.036  20.905  1.00  0.00    +0.001 A 
ATOM      2  C   UNL     1      49.020  57.948  21.763  1.00  0.00    +0.004 A 
ATOM      3  C   UNL     1      50.046  57.031  21.512  1.00  0.00    +0.047 A 
ATOM      4  C   UNL     1      49.971  56.195  20.398  1.00  0.00    +0.132 A 
ATOM      5  C   UNL     1      48.891  56.318  19.504  1.00  0.00    +0.083 A 
ATOM      6  C   UNL     1      47.856  57.220  19.776  1.00  0.00    +0.018 A 
ENDROOT
BRANCH   5   7
ATOM      7  C   UNL     1      48.792  55.495  18.265  1.00  0.00    +0.273 C 
ATOM      8  O   UNL     1      48.584  56.014  17.172  1.00  0.00    -0.267 OA
ATOM      9  N   UNL     1      48.941  54.126  18.434  1.00  0.00    -0.263 N 
ATOM     10  H   UNL     1      48.843  53.752  19.383  1.00  0.00    +0.191 HD
BRANCH   9  11
ATOM     11  N   UNL     1      48.411  53.301  17.424  1.00  0.00    -0.267 N 
ATOM     12  C   UNL     1      48.956  52.029  17.325  1.00  0.00    +0.238 C 
ATOM     13  O   UNL     1      49.987  51.680  17.902  1.00  0.00    -0.273 OA
ATOM     14  H   UNL     1      47.403  53.423  17.282  1.00  0.00    +0.191 HD
BRANCH  12  15
ATOM     15  C   UNL     1      48.112  51.117  16.452  1.00  0.00    +0.105 C 
BRANCH  15  16
ATOM     16  C   UNL     1      48.159  49.642  16.890  1.00  0.00    -0.002 C 
ATOM     17  C   UNL     1      48.048  48.673  15.703  1.00  0.00    +0.004 C 
ATOM     18  C   UNL     1      47.058  49.340  17.921  1.00  0.00    +0.004 C 
ATOM     19  C   UNL     1      46.649  48.622  15.089  1.00  0.00    +0.000 C 
ATOM     20  C   UNL     1      45.656  49.306  17.309  1.00  0.00    +0.000 C 
ATOM     21  C   UNL     1      45.583  48.335  16.136  1.00  0.00    +0.000 C 
ENDBRANCH  15  16
ENDBRANCH  12  15
ENDBRANCH   9  11
ENDBRANCH   5   7
BRANCH   4  22
ATOM     22  O   UNL     1      50.953  55.302  20.076  1.00  0.00    -0.483 OA
BRANCH  22  23
ATOM     23  C   UNL     1      51.712  54.748  21.154  1.00  0.00    +0.329 C 
BRANCH  23  24
ATOM     24  C   UNL     1      51.119  53.385  21.455  1.00  0.00    +0.255 C 
ATOM     25  O   UNL     1      50.187  52.891  20.822  1.00  0.00    -0.271 OA
ATOM     26  N   UNL     1      51.726  52.711  22.485  1.00  0.00    -0.367 N 
ATOM     27  H   UNL     1      51.322  51.832  22.789  1.00  0.00    +0.159 HD
ATOM     28  H   UNL     1      52.456  53.145  23.053  1.00  0.00    +0.159 HD
ENDBRANCH  23  24
ENDBRANCH  22  23
ENDBRANCH   4  22
TORSDOF 7
ENDMDL
MODEL 3
REMARK VINA RESULT:    -7.728      9.134     12.337
REMARK INTER + INTRA:         -12.000
REMARK INTER:                 -11.227
REMARK INTRA:                  -0.773
REMARK UNBOUND:                -1.110
REMARK SMILES NC(=O)COc1ccccc1C(=O)NNC(=O)CC1CCCCC1
REMARK SMILES IDX 9 1 8 2 7 3 6 4 11 5 10 6 12 7 13 8 14 9 15 11 16 12 17 13
REMARK SMILES IDX 18 15 19 16 20 17 24 18 21 19 23 20 22 21 5 22 4 23 2 24
REMARK SMILES IDX 3 25 1 26
REMARK H PARENT 14 10 15 14 1 27 1 28
ROOT
ATOM      1  C   UNL     1      46.734  65.448  16.662  1.00  0.00    +0.001 A 
ATOM      2  C   UNL     1      45.456  66.005  16.680  1.00  0.00    +0.004 A 
ATOM      3  C   UNL     1      44.454  65.459  17.489  1.00  0.00    +0.047 A 
ATOM      4  C   UNL     1      44.734  64.346  18.282  1.00  0.00    +0.132 A 
ATOM      5  C   UNL     1      46.036  63.814  18.304  1.00  0.00    +0.083 A 
ATOM      6  C   UNL     1      47.026  64.350  17.471  1.00  0.00    +0.018 A 
ENDROOT
BRANCH   5   7
ATOM      7  C   UNL     1      46.407  62.665  19.179  1.00  0.00    +0.273 C 
ATOM      8  O   UNL     1      46.878  62.845  20.299  1.00  0.00    -0.267 OA
ATOM      9  N   UNL     1      46.193  61.403  18.645  1.00  0.00    -0.263 N 
ATOM     10  H   UNL     1      46.057  61.334  17.631  1.00  0.00    +0.191 HD
BRANCH   9  11
ATOM     11  N   UNL     1      46.929  60.343  19.208  1.00  0.00    -0.267 N 
ATOM     12  C   UNL     1      47.179  59.262  18.375  1.00  0.00    +0.238 C 
ATOM     13  O   UNL     1      46.622  59.093  17.289  1.00  0.00    -0.273 OA
ATOM     14  H   UNL     1      47.660  60.651  19.856  1.00  0.00    +0.191 HD
BRANCH  12  15
ATOM     15  C   UNL     1      48.240  58.339  18.947  1.00  0.00    +0.105 C 
BRANCH  15  16
ATOM     16  C   UNL     1      47.776  57.587  20.208  1.00  0.00    -0.002 C 
ATOM     17  C   UNL     1      48.452  58.108  21.484  1.00  0.00    +0.004 C 
ATOM     18  C   UNL     1      48.016  56.074  20.063  1.00  0.00    +0.004 C 
ATOM     19  C   UNL     1      49.928  57.722  21.592  1.00  0.00    +0.000 C 
ATOM     20  C   UNL     1      49.495  55.691  20.154  1.00  0.00    +0.000 C 
ATOM     21  C   UNL     1      50.133  56.223  21.432  1.00  0.00    +0.000 C 
ENDBRANCH  15  16
ENDBRANCH  12  15
ENDBRANCH   9  11
ENDBRANCH   5   7
BRANCH   4  22
ATOM     22  O   UNL     1      43.813  63.785  19.120  1.00  0.00    -0.483 OA
BRANCH  22  23
ATOM     23  C   UNL     1      42.493  63.593  18.606  1.00  0.00    +0.329 C 
BRANCH  23  24
ATOM     24  C   UNL     1      41.556  64.391  19.491  1.00  0.00    +0.255 C 
ATOM     25  O   UNL     1      41.469  65.618  19.464  1.00  0.00    -0.271 OA
ATOM     26  N   UNL     1      40.769  63.633  20.322  1.00  0.00    -0.367 N 
ATOM     27  H   UNL     1      40.182  64.111  20.998  1.00  0.00    +0.159 HD
ATOM     28  H   UNL     1      40.884  62.621  20.393  1.00  0.00    +0.159 HD
ENDBRANCH  23  24
ENDBRANCH  22  23
ENDBRANCH   4  22
TORSDOF 7
ENDMDL
MODEL 4
REMARK VINA RESULT:    -6.705      8.741     11.905
REMARK INTER + INTRA:         -10.558
REMARK INTER:                  -8.987
REMARK INTRA:                  -1.572
REMARK UNBOUND:                -1.110
REMARK SMILES NC(=O)COc1ccccc1C(=O)NNC(=O)CC1CCCCC1
REMARK SMILES IDX 9 1 8 2 7 3 6 4 11 5 10 6 12 7 13 8 14 9 15 11 16 12 17 13
REMARK SMILES IDX 18 15 19 16 20 17 24 18 21 19 23 20 22 21 5 22 4 23 2 24
REMARK SMILES IDX 3 25 1 26
REMARK H PARENT 14 10 15 14 1 27 1 28
ROOT
ATOM      1  C   UNL     1      41.615  62.900  16.067  1.00  0.00    +0.001 A 
ATOM      2  C   UNL     1      42.073  64.214  15.976  1.00  0.00    +0.004 A 
ATOM      3  C   UNL     1      43.213  64.619  16.679  1.00  0.00    +0.047 A 
ATOM      4  C   UNL     1      43.895  63.702  17.480  1.00  0.00    +0.132 A 
ATOM      5  C   UNL     1      43.464  62.364  17.533  1.00  0.00    +0.083 A 
ATOM      6  C   UNL     1      42.307  61.974  16.847  1.00  0.00    +0.018 A 
ENDROOT
BRANCH   5   7
ATOM      7  C   UNL     1      44.190  61.329  18.322  1.00  0.00    +0.273 C 
ATOM      8  O   UNL     1      43.681  60.812  19.313  1.00  0.00    -0.267 OA
ATOM      9  N   UNL     1      45.460  61.004  17.871  1.00  0.00    -0.263 N 
ATOM     10  H   UNL     1      45.913  61.653  17.219  1.00  0.00    +0.191 HD
BRANCH   9  11
ATOM     11  N   UNL     1      46.333  60.412  18.803  1.00  0.00    -0.267 N 
ATOM     12  C   UNL     1      47.011  59.281  18.373  1.00  0.00    +0.238 C 
ATOM     13  O   UNL     1      46.732  58.666  17.342  1.00  0.00    -0.273 OA
ATOM     14  H   UNL     1      46.823  61.091  19.394  1.00  0.00    +0.191 HD
BRANCH  12  15
ATOM     15  C   UNL     1      48.154  58.917  19.304  1.00  0.00    +0.105 C 
BRANCH  15  16
ATOM     16  C   UNL     1      47.725  58.002  20.465  1.00  0.00    -0.002 C 
ATOM     17  C   UNL     1      48.554  58.237  21.736  1.00  0.00    +0.004 C 
ATOM     18  C   UNL     1      47.800  56.521  20.054  1.00  0.00    +0.004 C 
ATOM     19  C   UNL     1      49.987  57.717  21.633  1.00  0.00    +0.000 C 
ATOM     20  C   UNL     1      49.236  56.005  19.934  1.00  0.00    +0.000 C 
ATOM     21  C   UNL     1      50.028  56.255  21.212  1.00  0.00    +0.000 C 
ENDBRANCH  15  16
ENDBRANCH  12  15
ENDBRANCH   9  11
ENDBRANCH   5   7
BRANCH   4  22
ATOM     22  O   UNL     1      45.032  64.022  18.165  1.00  0.00    -0.483 OA
BRANCH  22  23
ATOM     23  C   UNL     1      45.959  64.899  17.520  1.00  0.00    +0.329 C 
BRANCH  23  24
ATOM     24  C   UNL     1      47.068  64.031  16.958  1.00  0.00    +0.255 C 
ATOM     25  O   UNL     1      47.490  63.018  17.513  1.00  0.00    -0.271 OA
ATOM     26  N   UNL     1      47.559  64.444  15.745  1.00  0.00    -0.367 N 
ATOM     27  H   UNL     1      48.359  63.954  15.357  1.00  0.00    +0.159 HD
ATOM     28  H   UNL     1      47.257  65.319  15.314  1.00  0.00    +0.159 HD
ENDBRANCH  23  24
ENDBRANCH  22  23
ENDBRANCH   4  22
TORSDOF 7
ENDMDL
MODEL 5
REMARK VINA RESULT:    -6.638      8.196     11.334
REMARK INTER + INTRA:         -10.465
REMARK INTER:                  -9.771
REMARK INTRA:                  -0.694
REMARK UNBOUND:                -1.110
REMARK SMILES NC(=O)COc1ccccc1C(=O)NNC(=O)CC1CCCCC1
REMARK SMILES IDX 9 1 8 2 7 3 6 4 11 5 10 6 12 7 13 8 14 9 15 11 16 12 17 13
REMARK SMILES IDX 18 15 19 16 20 17 24 18 21 19 23 20 22 21 5 22 4 23 2 24
REMARK SMILES IDX 3 25 1 26
REMARK H PARENT 14 10 15 14 1 27 1 28
ROOT
ATOM      1  C   UNL     1      43.033  62.434  19.539  1.00  0.00    +0.001 A 
ATOM      2  C   UNL     1      43.007  63.705  18.966  1.00  0.00    +0.004 A 
ATOM      3  C   UNL     1      43.950  64.067  17.998  1.00  0.00    +0.047 A 
ATOM      4  C   UNL     1      44.927  63.151  17.605  1.00  0.00    +0.132 A 
ATOM      5  C   UNL     1      44.923  61.852  18.146  1.00  0.00    +0.083 A 
ATOM      6  C   UNL     1      43.993  61.506  19.132  1.00  0.00    +0.018 A 
ENDROOT
BRANCH   5   7
ATOM      7  C   UNL     1      45.904  60.814  17.717  1.00  0.00    +0.273 C 
ATOM      8  O   UNL     1      45.620  59.990  16.851  1.00  0.00    -0.267 OA
ATOM      9  N   UNL     1      47.133  60.840  18.358  1.00  0.00    -0.263 N 
ATOM     10  H   UNL     1      47.199  61.367  19.236  1.00  0.00    +0.191 HD
BRANCH   9  11
ATOM     11  N   UNL     1      47.887  59.652  18.334  1.00  0.00    -0.267 N 
ATOM     12  C   UNL     1      47.641  58.751  19.360  1.00  0.00    +0.238 C 
ATOM     13  O   UNL     1      46.989  59.024  20.369  1.00  0.00    -0.273 OA
ATOM     14  H   UNL     1      48.058  59.294  17.389  1.00  0.00    +0.191 HD
BRANCH  12  15
ATOM     15  C   UNL     1      48.240  57.386  19.072  1.00  0.00    +0.105 C 
BRANCH  15  16
ATOM     16  C   UNL     1      48.350  56.493  20.321  1.00  0.00    -0.002 C 
ATOM     17  C   UNL     1      49.361  57.034  21.342  1.00  0.00    +0.004 C 
ATOM     18  C   UNL     1      48.713  55.049  19.933  1.00  0.00    +0.004 C 
ATOM     19  C   UNL     1      50.816  56.881  20.898  1.00  0.00    +0.000 C 
ATOM     20  C   UNL     1      50.164  54.900  19.472  1.00  0.00    +0.000 C 
ATOM     21  C   UNL     1      51.140  55.446  20.509  1.00  0.00    +0.000 C 
ENDBRANCH  15  16
ENDBRANCH  12  15
ENDBRANCH   9  11
ENDBRANCH   5   7
BRANCH   4  22
ATOM     22  O   UNL     1      45.854  63.427  16.642  1.00  0.00    -0.483 OA
BRANCH  22  23
ATOM     23  C   UNL     1      47.042  64.110  17.055  1.00  0.00    +0.329 C 
BRANCH  23  24
ATOM     24  C   UNL     1      47.140  65.368  16.215  1.00  0.00    +0.255 C 
ATOM     25  O   UNL     1      47.501  65.378  15.039  1.00  0.00    -0.271 OA
ATOM     26  N   UNL     1      46.759  66.518  16.860  1.00  0.00    -0.367 N 
ATOM     27  H   UNL     1      46.882  67.403  16.379  1.00  0.00    +0.159 HD
ATOM     28  H   UNL     1      46.521  66.522  17.853  1.00  0.00    +0.159 HD
ENDBRANCH  23  24
ENDBRANCH  22  23
ENDBRANCH   4  22
TORSDOF 7
ENDMDL
