MODEL 1
REMARK VINA RESULT:    -6.365      0.000      0.000
REMARK INTER + INTRA:         -10.824
REMARK INTER:                  -9.714
REMARK INTRA:                  -1.110
REMARK UNBOUND:                -1.110
REMARK SMILES CCCC[NH+]1CCCC[C@@H]1CNC(=O)NCCCOC
REMARK SMILES IDX 12 1 13 2 14 3 15 4 11 7 10 8 5 9 6 10 7 11 9 12 8 13 4 15
REMARK SMILES IDX 3 16 2 17 1 18 16 19 17 20 18 21 19 22 20 23
REMARK H PARENT 12 5 15 6 5 14
ROOT
ATOM      1  N   UNL     1      50.671  52.668  19.544  1.00  0.00    -0.332 N 
ATOM      2  C   UNL     1      51.195  53.082  20.746  1.00  0.00    +0.315 C 
ATOM      3  O   UNL     1      51.682  52.320  21.569  1.00  0.00    -0.249 OA
ATOM      4  N   UNL     1      51.076  54.434  20.895  1.00  0.00    -0.338 N 
ATOM      5  H   UNL     1      49.927  53.283  19.233  1.00  0.00    +0.165 HD
ATOM      6  H   UNL     1      51.155  54.980  20.040  1.00  0.00    +0.165 HD
ENDROOT
BRANCH   1   7
ATOM      7  C   UNL     1      50.550  51.248  19.294  1.00  0.00    +0.182 C 
BRANCH   7   8
ATOM      8  C   UNL     1      49.380  50.881  18.361  1.00  0.00    +0.203 C 
ATOM      9  N   UNL     1      49.786  49.680  17.479  1.00  0.00    -0.331 N 
ATOM     10  C   UNL     1      50.068  50.069  16.045  1.00  0.00    +0.262 C 
ATOM     11  C   UNL     1      48.833  50.680  15.398  1.00  0.00    +0.062 C 
ATOM     12  C   UNL     1      48.936  52.076  17.498  1.00  0.00    +0.067 C 
ATOM     13  C   UNL     1      48.080  51.639  16.317  1.00  0.00    +0.012 C 
ATOM     14  H   UNL     1      50.693  49.339  17.826  1.00  0.00    +0.348 HD
BRANCH   9  15
ATOM     15  C   UNL     1      48.843  48.491  17.590  1.00  0.00    +0.262 C 
BRANCH  15  16
ATOM     16  C   UNL     1      47.816  48.741  18.694  1.00  0.00    +0.061 C 
BRANCH  16  17
ATOM     17  C   UNL     1      46.415  48.245  18.325  1.00  0.00    +0.002 C 
ATOM     18  C   UNL     1      45.606  49.251  17.522  1.00  0.00    +0.004 C 
ENDBRANCH  16  17
ENDBRANCH  15  16
ENDBRANCH   9  15
ENDBRANCH   7   8
ENDBRANCH   1   7
BRANCH   4  19
ATOM     19  C   UNL     1      51.636  55.095  22.058  1.00  0.00    +0.120 C 
BRANCH  19  20
ATOM     20  C   UNL     1      51.099  56.515  22.212  1.00  0.00    +0.050 C 
BRANCH  20  21
ATOM     21  C   UNL     1      52.084  57.578  21.724  1.00  0.00    +0.161 C 
BRANCH  21  22
ATOM     22  O   UNL     1      52.851  57.067  20.626  1.00  0.00    -0.385 OA
ATOM     23  C   UNL     1      54.179  57.582  20.649  1.00  0.00    +0.194 C 
ENDBRANCH  21  22
ENDBRANCH  20  21
ENDBRANCH  19  20
ENDBRANCH   4  19
TORSDOF 9
ENDMDL
MODEL 2
REMARK VINA RESULT:    -6.019      2.730      7.857
REMARK INTER + INTRA:         -10.296
REMARK INTER:                  -9.364
REMARK INTRA:                  -0.931
REMARK UNBOUND:                -1.110
REMARK SMILES CCCC[NH+]1CCCC[C@@H]1CNC(=O)NCCCOC
REMARK SMILES IDX 12 1 13 2 14 3 15 4 11 7 10 8 5 9 6 10 7 11 9 12 8 13 4 15
REMARK SMILES IDX 3 16 2 17 1 18 16 19 17 20 18 21 19 22 20 23
REMARK H PARENT 12 5 15 6 5 14
ROOT
ATOM      1  N   UNL     1      51.307  52.823  18.817  1.00  0.00    -0.332 N 
ATOM      2  C   UNL     1      50.575  51.687  18.558  1.00  0.00    +0.315 C 
ATOM      3  O   UNL     1      50.150  50.944  19.430  1.00  0.00    -0.249 OA
ATOM      4  N   UNL     1      50.417  51.502  17.215  1.00  0.00    -0.338 N 
ATOM      5  H   UNL     1      51.950  53.029  18.062  1.00  0.00    +0.165 HD
ATOM      6  H   UNL     1      50.335  52.350  16.659  1.00  0.00    +0.165 HD
ENDROOT
BRANCH   1   7
ATOM      7  C   UNL     1      51.724  53.081  20.179  1.00  0.00    +0.182 C 
BRANCH   7   8
ATOM      8  C   UNL     1      51.152  54.387  20.764  1.00  0.00    +0.203 C 
ATOM      9  N   UNL     1      51.474  55.558  19.811  1.00  0.00    -0.331 N 
ATOM     10  C   UNL     1      52.565  56.464  20.337  1.00  0.00    +0.262 C 
ATOM     11  C   UNL     1      52.157  57.089  21.664  1.00  0.00    +0.062 C 
ATOM     12  C   UNL     1      51.683  54.665  22.181  1.00  0.00    +0.067 C 
ATOM     13  C   UNL     1      51.456  56.109  22.603  1.00  0.00    +0.012 C 
ATOM     14  H   UNL     1      51.880  55.154  18.956  1.00  0.00    +0.348 HD
BRANCH   9  15
ATOM     15  C   UNL     1      50.247  56.328  19.347  1.00  0.00    +0.262 C 
BRANCH  15  16
ATOM     16  C   UNL     1      48.995  55.770  20.022  1.00  0.00    +0.061 C 
BRANCH  16  17
ATOM     17  C   UNL     1      47.955  56.850  20.332  1.00  0.00    +0.002 C 
ATOM     18  C   UNL     1      48.466  57.934  21.268  1.00  0.00    +0.004 C 
ENDBRANCH  16  17
ENDBRANCH  15  16
ENDBRANCH   9  15
ENDBRANCH   7   8
ENDBRANCH   1   7
BRANCH   4  19
ATOM     19  C   UNL     1      49.608  50.405  16.718  1.00  0.00    +0.120 C 
BRANCH  19  20
ATOM     20  C   UNL     1      48.544  50.889  15.737  1.00  0.00    +0.050 C 
BRANCH  20  21
ATOM     21  C   UNL     1      48.348  49.938  14.556  1.00  0.00    +0.161 C 
BRANCH  21  22
ATOM     22  O   UNL     1      47.954  48.644  15.030  1.00  0.00    -0.385 OA
ATOM     23  C   UNL     1      46.654  48.302  14.560  1.00  0.00    +0.194 C 
ENDBRANCH  21  22
ENDBRANCH  20  21
ENDBRANCH  19  20
ENDBRANCH   4  19
TORSDOF 9
ENDMDL
MODEL 3
REMARK VINA RESULT:    -5.739      3.052      7.630
REMARK INTER + INTRA:          -9.869
REMARK INTER:                  -8.903
REMARK INTRA:                  -0.967
REMARK UNBOUND:                -1.110
REMARK SMILES CCCC[NH+]1CCCC[C@@H]1CNC(=O)NCCCOC
REMARK SMILES IDX 12 1 13 2 14 3 15 4 11 7 10 8 5 9 6 10 7 11 9 12 8 13 4 15
REMARK SMILES IDX 3 16 2 17 1 18 16 19 17 20 18 21 19 22 20 23
REMARK H PARENT 12 5 15 6 5 14
ROOT
ATOM      1  N   UNL     1      49.383  53.176  17.560  1.00  0.00    -0.332 N 
ATOM      2  C   UNL     1      48.644  52.449  16.657  1.00  0.00    +0.315 C 
ATOM      3  O   UNL     1      47.591  52.840  16.176  1.00  0.00    -0.249 OA
ATOM      4  N   UNL     1      49.232  51.244  16.400  1.00  0.00    -0.338 N 
ATOM      5  H   UNL     1      49.905  52.572  18.185  1.00  0.00    +0.165 HD
ATOM      6  H   UNL     1      50.249  51.237  16.413  1.00  0.00    +0.165 HD
ENDROOT
BRANCH   1   7
ATOM      7  C   UNL     1      48.822  54.403  18.086  1.00  0.00    +0.182 C 
BRANCH   7   8
ATOM      8  C   UNL     1      49.389  54.802  19.462  1.00  0.00    +0.203 C 
ATOM      9  N   UNL     1      50.337  56.009  19.294  1.00  0.00    -0.331 N 
ATOM     10  C   UNL     1      51.796  55.637  19.429  1.00  0.00    +0.262 C 
ATOM     11  C   UNL     1      52.081  55.056  20.808  1.00  0.00    +0.062 C 
ATOM     12  C   UNL     1      50.106  53.628  20.153  1.00  0.00    +0.067 C 
ATOM     13  C   UNL     1      50.997  54.096  21.294  1.00  0.00    +0.012 C 
ATOM     14  H   UNL     1      50.253  56.330  18.319  1.00  0.00    +0.348 HD
BRANCH   9  15
ATOM     15  C   UNL     1      49.957  57.212  20.145  1.00  0.00    +0.262 C 
BRANCH  15  16
ATOM     16  C   UNL     1      48.667  56.923  20.910  1.00  0.00    +0.061 C 
BRANCH  16  17
ATOM     17  C   UNL     1      47.566  57.948  20.628  1.00  0.00    +0.002 C 
ATOM     18  C   UNL     1      47.751  58.693  19.315  1.00  0.00    +0.004 C 
ENDBRANCH  16  17
ENDBRANCH  15  16
ENDBRANCH   9  15
ENDBRANCH   7   8
ENDBRANCH   1   7
BRANCH   4  19
ATOM     19  C   UNL     1      48.661  50.347  15.413  1.00  0.00    +0.120 C 
BRANCH  19  20
ATOM     20  C   UNL     1      47.823  49.251  16.066  1.00  0.00    +0.050 C 
BRANCH  20  21
ATOM     21  C   UNL     1      47.945  49.240  17.590  1.00  0.00    +0.161 C 
BRANCH  21  22
ATOM     22  O   UNL     1      49.087  48.470  17.984  1.00  0.00    -0.385 OA
ATOM     23  C   UNL     1      49.679  49.003  19.165  1.00  0.00    +0.194 C 
ENDBRANCH  21  22
ENDBRANCH  20  21
ENDBRANCH  19  20
ENDBRANCH   4  19
TORSDOF 9
ENDMDL
MODEL 4
REMARK VINA RESULT:    -5.569      7.530     10.749
REMARK INTER + INTRA:          -9.609
REMARK INTER:                  -8.860
REMARK INTRA:                  -0.750
REMARK UNBOUND:                -1.110
REMARK SMILES CCCC[NH+]1CCCC[C@@H]1CNC(=O)NCCCOC
REMARK SMILES IDX 12 1 13 2 14 3 15 4 11 7 10 8 5 9 6 10 7 11 9 12 8 13 4 15
REMARK SMILES IDX 3 16 2 17 1 18 16 19 17 20 18 21 19 22 20 23
REMARK H PARENT 12 5 15 6 5 14
ROOT
ATOM      1  N   UNL     1      47.039  59.617  19.225  1.00  0.00    -0.332 N 
ATOM      2  C   UNL     1      47.743  58.444  19.366  1.00  0.00    +0.315 C 
ATOM      3  O   UNL     1      48.072  57.737  18.425  1.00  0.00    -0.249 OA
ATOM      4  N   UNL     1      47.997  58.179  20.681  1.00  0.00    -0.338 N 
ATOM      5  H   UNL     1      46.463  59.803  20.038  1.00  0.00    +0.165 HD
ATOM      6  H   UNL     1      48.153  58.991  21.273  1.00  0.00    +0.165 HD
ENDROOT
BRANCH   1   7
ATOM      7  C   UNL     1      46.528  59.965  17.916  1.00  0.00    +0.182 C 
BRANCH   7   8
ATOM      8  C   UNL     1      45.551  61.156  17.930  1.00  0.00    +0.203 C 
ATOM      9  N   UNL     1      46.349  62.471  18.067  1.00  0.00    -0.331 N 
ATOM     10  C   UNL     1      46.237  63.089  19.442  1.00  0.00    +0.262 C 
ATOM     11  C   UNL     1      44.789  63.430  19.766  1.00  0.00    +0.062 C 
ATOM     12  C   UNL     1      44.502  61.027  19.049  1.00  0.00    +0.067 C 
ATOM     13  C   UNL     1      43.802  62.349  19.330  1.00  0.00    +0.012 C 
ATOM     14  H   UNL     1      47.347  62.232  17.983  1.00  0.00    +0.348 HD
BRANCH   9  15
ATOM     15  C   UNL     1      46.082  63.471  16.951  1.00  0.00    +0.262 C 
BRANCH  15  16
ATOM     16  C   UNL     1      47.197  64.515  16.910  1.00  0.00    +0.061 C 
BRANCH  16  17
ATOM     17  C   UNL     1      46.669  65.950  16.993  1.00  0.00    +0.002 C 
ATOM     18  C   UNL     1      45.151  66.040  16.993  1.00  0.00    +0.004 C 
ENDBRANCH  16  17
ENDBRANCH  15  16
ENDBRANCH   9  15
ENDBRANCH   7   8
ENDBRANCH   1   7
BRANCH   4  19
ATOM     19  C   UNL     1      48.798  57.029  21.054  1.00  0.00    +0.120 C 
BRANCH  19  20
ATOM     20  C   UNL     1      50.043  57.440  21.835  1.00  0.00    +0.050 C 
BRANCH  20  21
ATOM     21  C   UNL     1      51.328  57.301  21.018  1.00  0.00    +0.161 C 
BRANCH  21  22
ATOM     22  O   UNL     1      52.264  58.316  21.401  1.00  0.00    -0.385 OA
ATOM     23  C   UNL     1      53.526  57.747  21.738  1.00  0.00    +0.194 C 
ENDBRANCH  21  22
ENDBRANCH  20  21
ENDBRANCH  19  20
ENDBRANCH   4  19
TORSDOF 9
ENDMDL
MODEL 5
REMARK VINA RESULT:    -5.156      7.464      9.970
REMARK INTER + INTRA:          -8.979
REMARK INTER:                  -7.674
REMARK INTRA:                  -1.305
REMARK UNBOUND:                -1.110
REMARK SMILES CCCC[NH+]1CCCC[C@@H]1CNC(=O)NCCCOC
REMARK SMILES IDX 12 1 13 2 14 3 15 4 11 7 10 8 5 9 6 10 7 11 9 12 8 13 4 15
REMARK SMILES IDX 3 16 2 17 1 18 16 19 17 20 18 21 19 22 20 23
REMARK H PARENT 12 5 15 6 5 14
ROOT
ATOM      1  N   UNL     1      47.763  59.502  18.111  1.00  0.00    -0.332 N 
ATOM      2  C   UNL     1      47.794  58.736  19.253  1.00  0.00    +0.315 C 
ATOM      3  O   UNL     1      47.710  59.201  20.381  1.00  0.00    -0.249 OA
ATOM      4  N   UNL     1      47.953  57.414  18.953  1.00  0.00    -0.338 N 
ATOM      5  H   UNL     1      48.298  59.075  17.364  1.00  0.00    +0.165 HD
ATOM      6  H   UNL     1      47.513  57.101  18.091  1.00  0.00    +0.165 HD
ENDROOT
BRANCH   1   7
ATOM      7  C   UNL     1      47.778  60.943  18.244  1.00  0.00    +0.182 C 
BRANCH   7   8
ATOM      8  C   UNL     1      46.373  61.574  18.309  1.00  0.00    +0.203 C 
ATOM      9  N   UNL     1      46.079  62.302  16.979  1.00  0.00    -0.331 N 
ATOM     10  C   UNL     1      46.144  63.807  17.104  1.00  0.00    +0.262 C 
ATOM     11  C   UNL     1      45.117  64.312  18.108  1.00  0.00    +0.062 C 
ATOM     12  C   UNL     1      46.225  62.528  19.507  1.00  0.00    +0.067 C 
ATOM     13  C   UNL     1      45.019  63.444  19.360  1.00  0.00    +0.012 C 
ATOM     14  H   UNL     1      46.844  62.074  16.329  1.00  0.00    +0.348 HD
BRANCH   9  15
ATOM     15  C   UNL     1      44.811  61.825  16.286  1.00  0.00    +0.262 C 
BRANCH  15  16
ATOM     16  C   UNL     1      44.244  60.608  17.015  1.00  0.00    +0.061 C 
BRANCH  16  17
ATOM     17  C   UNL     1      42.795  60.807  17.468  1.00  0.00    +0.002 C 
ATOM     18  C   UNL     1      42.621  60.776  18.978  1.00  0.00    +0.004 C 
ENDBRANCH  16  17
ENDBRANCH  15  16
ENDBRANCH   9  15
ENDBRANCH   7   8
ENDBRANCH   1   7
BRANCH   4  19
ATOM     19  C   UNL     1      47.934  56.417  20.007  1.00  0.00    +0.120 C 
BRANCH  19  20
ATOM     20  C   UNL     1      49.324  55.842  20.263  1.00  0.00    +0.050 C 
BRANCH  20  21
ATOM     21  C   UNL     1      50.139  56.677  21.251  1.00  0.00    +0.161 C 
BRANCH  21  22
ATOM     22  O   UNL     1      50.852  57.705  20.551  1.00  0.00    -0.385 OA
ATOM     23  C   UNL     1      52.260  57.539  20.698  1.00  0.00    +0.194 C 
ENDBRANCH  21  22
ENDBRANCH  20  21
ENDBRANCH  19  20
ENDBRANCH   4  19
TORSDOF 9
ENDMDL
