MODEL 1
REMARK VINA RESULT:    -8.159      0.000      0.000
REMARK INTER + INTRA:         -12.509
REMARK INTER:                 -11.498
REMARK INTRA:                  -1.011
REMARK UNBOUND:                -1.011
REMARK SMILES CCN(Cc1ccc2c(c1)OCO2)C(=O)C[NH+]1CCCC[C@H]1C(N)=O
REMARK SMILES IDX 14 1 15 2 3 3 2 4 1 5 4 6 5 7 6 8 10 9 7 10 9 11 8 12 11 13
REMARK SMILES IDX 13 14 12 15 16 16 17 17 18 18 22 19 19 20 21 21 20 22 23 24
REMARK SMILES IDX 25 25 24 26
REMARK H PARENT 17 23 24 27 24 28
ROOT
ATOM      1  C   UNL     1      51.001  53.591  19.248  1.00  0.00    +0.278 C 
ATOM      2  O   UNL     1      51.806  54.114  18.469  1.00  0.00    -0.268 OA
ENDROOT
BRANCH   1   3
ATOM      3  N   UNL     1      50.955  52.235  19.511  1.00  0.00    -0.334 N 
BRANCH   3   4
ATOM      4  C   UNL     1      51.099  51.648  20.850  1.00  0.00    +0.116 C 
ATOM      5  C   UNL     1      52.303  50.727  20.986  1.00  0.00    +0.027 C 
ENDBRANCH   3   4
BRANCH   3   6
ATOM      6  C   UNL     1      50.869  51.307  18.375  1.00  0.00    +0.155 C 
BRANCH   6   7
ATOM      7  C   UNL     1      49.456  50.886  18.056  1.00  0.00    -0.025 A 
ATOM      8  C   UNL     1      48.643  51.685  17.218  1.00  0.00    +0.009 A 
ATOM      9  C   UNL     1      48.937  49.693  18.587  1.00  0.00    +0.056 A 
ATOM     10  C   UNL     1      47.334  51.303  16.904  1.00  0.00    +0.051 A 
ATOM     11  C   UNL     1      47.644  49.342  18.258  1.00  0.00    +0.166 A 
ATOM     12  C   UNL     1      46.866  50.123  17.438  1.00  0.00    +0.165 A 
ATOM     13  O   UNL     1      46.995  48.223  18.677  1.00  0.00    -0.454 OA
ATOM     14  O   UNL     1      45.629  49.597  17.240  1.00  0.00    -0.454 OA
ATOM     15  C   UNL     1      45.710  48.400  18.045  1.00  0.00    +0.468 C 
ENDBRANCH   6   7
ENDBRANCH   3   6
ENDBRANCH   1   3
BRANCH   1  16
ATOM     16  C   UNL     1      49.998  54.525  19.945  1.00  0.00    +0.364 C 
BRANCH  16  17
ATOM     17  N   UNL     1      50.219  55.974  19.447  1.00  0.00    -0.317 N 
ATOM     18  C   UNL     1      49.150  56.445  18.494  1.00  0.00    +0.263 C 
ATOM     19  C   UNL     1      50.548  56.982  20.541  1.00  0.00    +0.274 C 
ATOM     20  C   UNL     1      48.207  57.447  19.156  1.00  0.00    +0.062 C 
ATOM     21  C   UNL     1      49.312  57.171  21.424  1.00  0.00    +0.076 C 
ATOM     22  C   UNL     1      47.996  57.173  20.640  1.00  0.00    +0.012 C 
ATOM     23  H   UNL     1      51.073  55.863  18.871  1.00  0.00    +0.349 HD
BRANCH  19  24
ATOM     24  C   UNL     1      51.809  56.567  21.325  1.00  0.00    +0.275 C 
ATOM     25  O   UNL     1      52.876  56.289  20.794  1.00  0.00    -0.268 OA
ATOM     26  N   UNL     1      51.710  56.669  22.687  1.00  0.00    -0.365 N 
ATOM     27  H   UNL     1      52.529  56.341  23.195  1.00  0.00    +0.159 HD
ATOM     28  H   UNL     1      50.836  56.512  23.176  1.00  0.00    +0.159 HD
ENDBRANCH  19  24
ENDBRANCH  16  17
ENDBRANCH   1  16
TORSDOF 7
ENDMDL
MODEL 2
REMARK VINA RESULT:    -7.532      3.293      4.928
REMARK INTER + INTRA:         -11.625
REMARK INTER:                 -10.615
REMARK INTRA:                  -1.010
REMARK UNBOUND:                -1.011
REMARK SMILES CCN(Cc1ccc2c(c1)OCO2)C(=O)C[NH+]1CCCC[C@H]1C(N)=O
REMARK SMILES IDX 14 1 15 2 3 3 2 4 1 5 4 6 5 7 6 8 10 9 7 10 9 11 8 12 11 13
REMARK SMILES IDX 13 14 12 15 16 16 17 17 18 18 22 19 19 20 21 21 20 22 23 24
REMARK SMILES IDX 25 25 24 26
REMARK H PARENT 17 23 24 27 24 28
ROOT
ATOM      1  C   UNL     1      50.258  51.134  17.330  1.00  0.00    +0.278 C 
ATOM      2  O   UNL     1      51.362  50.773  16.905  1.00  0.00    -0.268 OA
ENDROOT
BRANCH   1   3
ATOM      3  N   UNL     1      49.098  51.105  16.578  1.00  0.00    -0.334 N 
BRANCH   3   4
ATOM      4  C   UNL     1      47.867  51.826  16.930  1.00  0.00    +0.116 C 
ATOM      5  C   UNL     1      47.862  53.280  16.481  1.00  0.00    +0.027 C 
ENDBRANCH   3   4
BRANCH   3   6
ATOM      6  C   UNL     1      49.047  50.214  15.411  1.00  0.00    +0.155 C 
BRANCH   6   7
ATOM      7  C   UNL     1      48.185  48.996  15.629  1.00  0.00    -0.025 A 
ATOM      8  C   UNL     1      48.673  47.898  16.376  1.00  0.00    +0.009 A 
ATOM      9  C   UNL     1      46.886  48.944  15.095  1.00  0.00    +0.056 A 
ATOM     10  C   UNL     1      47.881  46.766  16.598  1.00  0.00    +0.051 A 
ATOM     11  C   UNL     1      46.129  47.815  15.332  1.00  0.00    +0.166 A 
ATOM     12  C   UNL     1      46.612  46.757  16.064  1.00  0.00    +0.165 A 
ATOM     13  O   UNL     1      44.858  47.607  14.896  1.00  0.00    -0.454 OA
ATOM     14  O   UNL     1      45.708  45.749  16.179  1.00  0.00    -0.454 OA
ATOM     15  C   UNL     1      44.603  46.286  15.419  1.00  0.00    +0.468 C 
ENDBRANCH   6   7
ENDBRANCH   3   6
ENDBRANCH   1   3
BRANCH   1  16
ATOM     16  C   UNL     1      50.201  51.650  18.777  1.00  0.00    +0.364 C 
BRANCH  16  17
ATOM     17  N   UNL     1      51.620  52.086  19.220  1.00  0.00    -0.317 N 
ATOM     18  C   UNL     1      51.740  53.570  19.452  1.00  0.00    +0.263 C 
ATOM     19  C   UNL     1      52.230  51.242  20.331  1.00  0.00    +0.274 C 
ATOM     20  C   UNL     1      51.818  53.902  20.941  1.00  0.00    +0.062 C 
ATOM     21  C   UNL     1      51.443  51.486  21.622  1.00  0.00    +0.076 C 
ATOM     22  C   UNL     1      51.009  52.943  21.806  1.00  0.00    +0.012 C 
ATOM     23  H   UNL     1      52.168  51.896  18.360  1.00  0.00    +0.349 HD
BRANCH  19  24
ATOM     24  C   UNL     1      52.309  49.756  19.929  1.00  0.00    +0.275 C 
ATOM     25  O   UNL     1      51.488  48.917  20.272  1.00  0.00    -0.268 OA
ATOM     26  N   UNL     1      53.292  49.447  19.026  1.00  0.00    -0.365 N 
ATOM     27  H   UNL     1      53.369  48.455  18.811  1.00  0.00    +0.159 HD
ATOM     28  H   UNL     1      54.178  49.939  19.006  1.00  0.00    +0.159 HD
ENDBRANCH  19  24
ENDBRANCH  16  17
ENDBRANCH   1  16
TORSDOF 7
ENDMDL
MODEL 3
REMARK VINA RESULT:    -7.528      2.221      2.991
REMARK INTER + INTRA:         -11.620
REMARK INTER:                 -10.873
REMARK INTRA:                  -0.746
REMARK UNBOUND:                -1.011
REMARK SMILES CCN(Cc1ccc2c(c1)OCO2)C(=O)C[NH+]1CCCC[C@H]1C(N)=O
REMARK SMILES IDX 14 1 15 2 3 3 2 4 1 5 4 6 5 7 6 8 10 9 7 10 9 11 8 12 11 13
REMARK SMILES IDX 13 14 12 15 16 16 17 17 18 18 22 19 19 20 21 21 20 22 23 24
REMARK SMILES IDX 25 25 24 26
REMARK H PARENT 17 23 24 27 24 28
ROOT
ATOM      1  C   UNL     1      49.114  53.677  18.326  1.00  0.00    +0.278 C 
ATOM      2  O   UNL     1      48.677  54.657  17.712  1.00  0.00    -0.268 OA
ENDROOT
BRANCH   1   3
ATOM      3  N   UNL     1      49.166  52.401  17.798  1.00  0.00    -0.334 N 
BRANCH   3   4
ATOM      4  C   UNL     1      49.832  51.264  18.450  1.00  0.00    +0.116 C 
ATOM      5  C   UNL     1      51.171  50.901  17.823  1.00  0.00    +0.027 C 
ENDBRANCH   3   4
BRANCH   3   6
ATOM      6  C   UNL     1      48.622  52.180  16.451  1.00  0.00    +0.155 C 
BRANCH   6   7
ATOM      7  C   UNL     1      47.859  50.885  16.322  1.00  0.00    -0.025 A 
ATOM      8  C   UNL     1      48.277  49.897  15.401  1.00  0.00    +0.009 A 
ATOM      9  C   UNL     1      46.726  50.650  17.121  1.00  0.00    +0.056 A 
ATOM     10  C   UNL     1      47.587  48.686  15.278  1.00  0.00    +0.051 A 
ATOM     11  C   UNL     1      46.068  49.446  16.978  1.00  0.00    +0.166 A 
ATOM     12  C   UNL     1      46.487  48.491  16.083  1.00  0.00    +0.165 A 
ATOM     13  O   UNL     1      44.966  49.058  17.673  1.00  0.00    -0.454 OA
ATOM     14  O   UNL     1      45.702  47.382  16.101  1.00  0.00    -0.454 OA
ATOM     15  C   UNL     1      44.726  47.755  17.099  1.00  0.00    +0.468 C 
ENDBRANCH   6   7
ENDBRANCH   3   6
ENDBRANCH   1   3
BRANCH   1  16
ATOM     16  C   UNL     1      49.612  53.917  19.760  1.00  0.00    +0.364 C 
BRANCH  16  17
ATOM     17  N   UNL     1      51.134  54.200  19.732  1.00  0.00    -0.317 N 
ATOM     18  C   UNL     1      51.479  55.543  19.141  1.00  0.00    +0.263 C 
ATOM     19  C   UNL     1      51.864  53.901  21.035  1.00  0.00    +0.274 C 
ATOM     20  C   UNL     1      51.915  56.536  20.217  1.00  0.00    +0.062 C 
ATOM     21  C   UNL     1      51.409  54.907  22.095  1.00  0.00    +0.076 C 
ATOM     22  C   UNL     1      51.203  56.322  21.547  1.00  0.00    +0.012 C 
ATOM     23  H   UNL     1      51.457  53.501  19.037  1.00  0.00    +0.349 HD
BRANCH  19  24
ATOM     24  C   UNL     1      51.676  52.431  21.459  1.00  0.00    +0.275 C 
ATOM     25  O   UNL     1      52.354  51.508  21.025  1.00  0.00    -0.268 OA
ATOM     26  N   UNL     1      50.785  52.226  22.479  1.00  0.00    -0.365 N 
ATOM     27  H   UNL     1      50.631  51.247  22.713  1.00  0.00    +0.159 HD
ATOM     28  H   UNL     1      49.968  52.811  22.604  1.00  0.00    +0.159 HD
ENDBRANCH  19  24
ENDBRANCH  16  17
ENDBRANCH   1  16
TORSDOF 7
ENDMDL
MODEL 4
REMARK VINA RESULT:    -7.281      2.547      7.903
REMARK INTER + INTRA:         -11.271
REMARK INTER:                 -10.297
REMARK INTRA:                  -0.975
REMARK UNBOUND:                -1.011
REMARK SMILES CCN(Cc1ccc2c(c1)OCO2)C(=O)C[NH+]1CCCC[C@H]1C(N)=O
REMARK SMILES IDX 14 1 15 2 3 3 2 4 1 5 4 6 5 7 6 8 10 9 7 10 9 11 8 12 11 13
REMARK SMILES IDX 13 14 12 15 16 16 17 17 18 18 22 19 19 20 21 21 20 22 23 24
REMARK SMILES IDX 25 25 24 26
REMARK H PARENT 17 23 24 27 24 28
ROOT
ATOM      1  C   UNL     1      50.238  52.357  18.186  1.00  0.00    +0.278 C 
ATOM      2  O   UNL     1      51.406  52.198  17.811  1.00  0.00    -0.268 OA
ENDROOT
BRANCH   1   3
ATOM      3  N   UNL     1      49.880  53.114  19.286  1.00  0.00    -0.334 N 
BRANCH   3   4
ATOM      4  C   UNL     1      48.826  54.138  19.277  1.00  0.00    +0.116 C 
ATOM      5  C   UNL     1      48.946  55.125  18.125  1.00  0.00    +0.027 C 
ENDBRANCH   3   4
BRANCH   3   6
ATOM      6  C   UNL     1      50.671  52.973  20.516  1.00  0.00    +0.155 C 
BRANCH   6   7
ATOM      7  C   UNL     1      51.297  54.267  20.973  1.00  0.00    -0.025 A 
ATOM      8  C   UNL     1      51.031  54.773  22.267  1.00  0.00    +0.009 A 
ATOM      9  C   UNL     1      52.154  54.979  20.117  1.00  0.00    +0.056 A 
ATOM     10  C   UNL     1      51.613  55.966  22.710  1.00  0.00    +0.051 A 
ATOM     11  C   UNL     1      52.714  56.151  20.582  1.00  0.00    +0.166 A 
ATOM     12  C   UNL     1      52.453  56.630  21.843  1.00  0.00    +0.165 A 
ATOM     13  O   UNL     1      53.565  56.953  19.888  1.00  0.00    -0.454 OA
ATOM     14  O   UNL     1      53.103  57.794  22.102  1.00  0.00    -0.454 OA
ATOM     15  C   UNL     1      53.793  58.004  20.851  1.00  0.00    +0.468 C 
ENDBRANCH   6   7
ENDBRANCH   3   6
ENDBRANCH   1   3
BRANCH   1  16
ATOM     16  C   UNL     1      49.142  51.653  17.371  1.00  0.00    +0.364 C 
BRANCH  16  17
ATOM     17  N   UNL     1      49.334  50.120  17.471  1.00  0.00    -0.317 N 
ATOM     18  C   UNL     1      48.684  49.518  18.691  1.00  0.00    +0.263 C 
ATOM     19  C   UNL     1      49.049  49.354  16.186  1.00  0.00    +0.274 C 
ATOM     20  C   UNL     1      47.421  48.739  18.329  1.00  0.00    +0.062 C 
ATOM     21  C   UNL     1      47.548  49.432  15.891  1.00  0.00    +0.076 C 
ATOM     22  C   UNL     1      46.673  49.338  17.144  1.00  0.00    +0.012 C 
ATOM     23  H   UNL     1      50.355  50.055  17.642  1.00  0.00    +0.349 HD
BRANCH  19  24
ATOM     24  C   UNL     1      49.932  49.854  15.027  1.00  0.00    +0.275 C 
ATOM     25  O   UNL     1      49.506  50.094  13.905  1.00  0.00    -0.268 OA
ATOM     26  N   UNL     1      51.224  50.159  15.366  1.00  0.00    -0.365 N 
ATOM     27  H   UNL     1      51.811  50.437  14.581  1.00  0.00    +0.159 HD
ATOM     28  H   UNL     1      51.722  49.659  16.092  1.00  0.00    +0.159 HD
ENDBRANCH  19  24
ENDBRANCH  16  17
ENDBRANCH   1  16
TORSDOF 7
ENDMDL
MODEL 5
REMARK VINA RESULT:    -6.621      4.907      8.008
REMARK INTER + INTRA:         -10.342
REMARK INTER:                  -9.335
REMARK INTRA:                  -1.007
REMARK UNBOUND:                -1.011
REMARK SMILES CCN(Cc1ccc2c(c1)OCO2)C(=O)C[NH+]1CCCC[C@H]1C(N)=O
REMARK SMILES IDX 14 1 15 2 3 3 2 4 1 5 4 6 5 7 6 8 10 9 7 10 9 11 8 12 11 13
REMARK SMILES IDX 13 14 12 15 16 16 17 17 18 18 22 19 19 20 21 21 20 22 23 24
REMARK SMILES IDX 25 25 24 26
REMARK H PARENT 17 23 24 27 24 28
ROOT
ATOM      1  C   UNL     1      47.151  59.868  18.718  1.00  0.00    +0.278 C 
ATOM      2  O   UNL     1      47.904  60.786  18.373  1.00  0.00    -0.268 OA
ENDROOT
BRANCH   1   3
ATOM      3  N   UNL     1      47.526  58.538  18.750  1.00  0.00    -0.334 N 
BRANCH   3   4
ATOM      4  C   UNL     1      48.019  57.791  17.585  1.00  0.00    +0.116 C 
ATOM      5  C   UNL     1      47.047  57.775  16.415  1.00  0.00    +0.027 C 
ENDBRANCH   3   4
BRANCH   3   6
ATOM      6  C   UNL     1      47.317  57.785  19.994  1.00  0.00    +0.155 C 
BRANCH   6   7
ATOM      7  C   UNL     1      48.580  57.157  20.529  1.00  0.00    -0.025 A 
ATOM      8  C   UNL     1      49.440  57.890  21.379  1.00  0.00    +0.009 A 
ATOM      9  C   UNL     1      48.911  55.834  20.188  1.00  0.00    +0.056 A 
ATOM     10  C   UNL     1      50.610  57.318  21.892  1.00  0.00    +0.051 A 
ATOM     11  C   UNL     1      50.069  55.296  20.710  1.00  0.00    +0.166 A 
ATOM     12  C   UNL     1      50.894  56.017  21.540  1.00  0.00    +0.165 A 
ATOM     13  O   UNL     1      50.529  54.037  20.488  1.00  0.00    -0.454 OA
ATOM     14  O   UNL     1      51.978  55.304  21.943  1.00  0.00    -0.454 OA
ATOM     15  C   UNL     1      51.751  54.053  21.257  1.00  0.00    +0.468 C 
ENDBRANCH   6   7
ENDBRANCH   3   6
ENDBRANCH   1   3
BRANCH   1  16
ATOM     16  C   UNL     1      45.719  60.255  19.121  1.00  0.00    +0.364 C 
BRANCH  16  17
ATOM     17  N   UNL     1      45.057  61.040  17.963  1.00  0.00    -0.317 N 
ATOM     18  C   UNL     1      44.140  60.193  17.117  1.00  0.00    +0.263 C 
ATOM     19  C   UNL     1      44.454  62.381  18.362  1.00  0.00    +0.274 C 
ATOM     20  C   UNL     1      42.671  60.514  17.385  1.00  0.00    +0.062 C 
ATOM     21  C   UNL     1      43.241  62.125  19.261  1.00  0.00    +0.076 C 
ATOM     22  C   UNL     1      42.405  60.916  18.831  1.00  0.00    +0.012 C 
ATOM     23  H   UNL     1      45.877  61.245  17.362  1.00  0.00    +0.349 HD
BRANCH  19  24
ATOM     24  C   UNL     1      45.510  63.304  19.000  1.00  0.00    +0.275 C 
ATOM     25  O   UNL     1      45.523  63.600  20.187  1.00  0.00    -0.268 OA
ATOM     26  N   UNL     1      46.543  63.668  18.176  1.00  0.00    -0.365 N 
ATOM     27  H   UNL     1      47.204  64.320  18.592  1.00  0.00    +0.159 HD
ATOM     28  H   UNL     1      46.415  63.795  17.179  1.00  0.00    +0.159 HD
ENDBRANCH  19  24
ENDBRANCH  16  17
ENDBRANCH   1  16
TORSDOF 7
ENDMDL
