MODEL 1
REMARK VINA RESULT:    -8.229      0.000      0.000
REMARK INTER + INTRA:         -11.790
REMARK INTER:                 -11.115
REMARK INTRA:                  -0.675
REMARK UNBOUND:                -0.675
REMARK SMILES CCCNC(=S)NNC(=O)[C@@H]1CCCN(C(=O)c2ccccc2)C1
REMARK SMILES IDX 4 1 5 2 6 3 7 4 3 7 2 8 1 9 8 10 9 11 10 12 11 14 12 15
REMARK SMILES IDX 24 16 13 17 15 18 14 19 16 20 17 21 18 22 19 23 23 24 20 25
REMARK SMILES IDX 22 26 21 27
REMARK H PARENT 4 5 7 6 8 13
ROOT
ATOM      1  N   UNL     1      50.630  57.666  21.332  1.00  0.00    -0.361 N 
ATOM      2  C   UNL     1      51.113  56.464  20.914  1.00  0.00    +0.185 C 
ATOM      3  S   UNL     1      52.662  56.410  20.279  1.00  0.00    -0.039 S 
ATOM      4  N   UNL     1      50.298  55.375  21.088  1.00  0.00    -0.274 N 
ATOM      5  H   UNL     1      51.294  58.429  21.242  1.00  0.00    +0.162 HD
ATOM      6  H   UNL     1      49.292  55.518  21.165  1.00  0.00    +0.190 HD
ENDROOT
BRANCH   1   7
ATOM      7  C   UNL     1      49.389  57.957  22.032  1.00  0.00    +0.115 C 
BRANCH   7   8
ATOM      8  C   UNL     1      48.329  58.526  21.093  1.00  0.00    +0.018 C 
ATOM      9  C   UNL     1      47.481  57.424  20.481  1.00  0.00    +0.006 C 
ENDBRANCH   7   8
ENDBRANCH   1   7
BRANCH   4  10
ATOM     10  N   UNL     1      50.637  54.138  20.509  1.00  0.00    -0.268 N 
ATOM     11  C   UNL     1      51.150  53.167  21.351  1.00  0.00    +0.243 C 
ATOM     12  O   UNL     1      51.484  53.411  22.509  1.00  0.00    -0.273 OA
ATOM     13  H   UNL     1      50.147  53.898  19.650  1.00  0.00    +0.191 HD
BRANCH  11  14
ATOM     14  C   UNL     1      51.235  51.790  20.718  1.00  0.00    +0.100 C 
ATOM     15  C   UNL     1      52.696  51.442  20.375  1.00  0.00    +0.017 C 
ATOM     16  C   UNL     1      50.372  51.735  19.454  1.00  0.00    +0.133 C 
ATOM     17  C   UNL     1      52.800  50.130  19.591  1.00  0.00    +0.022 C 
ATOM     18  N   UNL     1      50.504  50.433  18.800  1.00  0.00    -0.338 N 
ATOM     19  C   UNL     1      51.870  50.123  18.376  1.00  0.00    +0.120 C 
BRANCH  18  20
ATOM     20  C   UNL     1      49.591  49.437  19.164  1.00  0.00    +0.253 C 
ATOM     21  O   UNL     1      49.828  48.587  20.020  1.00  0.00    -0.269 OA
BRANCH  20  22
ATOM     22  C   UNL     1      48.266  49.407  18.502  1.00  0.00    +0.040 A 
ATOM     23  C   UNL     1      47.321  48.465  18.922  1.00  0.00    +0.014 A 
ATOM     24  C   UNL     1      47.935  50.347  17.519  1.00  0.00    +0.014 A 
ATOM     25  C   UNL     1      46.059  48.438  18.327  1.00  0.00    +0.001 A 
ATOM     26  C   UNL     1      46.671  50.316  16.928  1.00  0.00    +0.001 A 
ATOM     27  C   UNL     1      45.737  49.358  17.329  1.00  0.00    +0.000 A 
ENDBRANCH  20  22
ENDBRANCH  18  20
ENDBRANCH  11  14
ENDBRANCH   4  10
TORSDOF 6
ENDMDL
MODEL 2
REMARK VINA RESULT:    -8.027      2.716      7.614
REMARK INTER + INTRA:         -11.518
REMARK INTER:                 -11.092
REMARK INTRA:                  -0.426
REMARK UNBOUND:                -0.675
REMARK SMILES CCCNC(=S)NNC(=O)[C@@H]1CCCN(C(=O)c2ccccc2)C1
REMARK SMILES IDX 4 1 5 2 6 3 7 4 3 7 2 8 1 9 8 10 9 11 10 12 11 14 12 15
REMARK SMILES IDX 24 16 13 17 15 18 14 19 16 20 17 21 18 22 19 23 23 24 20 25
REMARK SMILES IDX 22 26 21 27
REMARK H PARENT 4 5 7 6 8 13
ROOT
ATOM      1  N   UNL     1      48.145  48.139  15.377  1.00  0.00    -0.361 N 
ATOM      2  C   UNL     1      49.030  49.066  15.836  1.00  0.00    +0.185 C 
ATOM      3  S   UNL     1      50.181  49.656  14.773  1.00  0.00    -0.039 S 
ATOM      4  N   UNL     1      48.877  49.477  17.135  1.00  0.00    -0.274 N 
ATOM      5  H   UNL     1      48.258  47.915  14.393  1.00  0.00    +0.162 HD
ATOM      6  H   UNL     1      48.396  48.867  17.793  1.00  0.00    +0.190 HD
ENDROOT
BRANCH   1   7
ATOM      7  C   UNL     1      46.984  47.576  16.047  1.00  0.00    +0.115 C 
BRANCH   7   8
ATOM      8  C   UNL     1      45.749  48.458  15.877  1.00  0.00    +0.018 C 
ATOM      9  C   UNL     1      45.242  48.968  17.215  1.00  0.00    +0.006 C 
ENDBRANCH   7   8
ENDBRANCH   1   7
BRANCH   4  10
ATOM     10  N   UNL     1      49.860  50.280  17.743  1.00  0.00    -0.268 N 
ATOM     11  C   UNL     1      49.550  51.613  17.947  1.00  0.00    +0.243 C 
ATOM     12  O   UNL     1      48.553  52.138  17.455  1.00  0.00    -0.273 OA
ATOM     13  H   UNL     1      50.536  49.792  18.327  1.00  0.00    +0.191 HD
BRANCH  11  14
ATOM     14  C   UNL     1      50.537  52.342  18.841  1.00  0.00    +0.100 C 
ATOM     15  C   UNL     1      51.555  51.354  19.443  1.00  0.00    +0.017 C 
ATOM     16  C   UNL     1      49.793  53.076  19.961  1.00  0.00    +0.133 C 
ATOM     17  C   UNL     1      52.464  52.030  20.473  1.00  0.00    +0.022 C 
ATOM     18  N   UNL     1      50.742  53.723  20.867  1.00  0.00    -0.338 N 
ATOM     19  C   UNL     1      51.656  52.790  21.526  1.00  0.00    +0.120 C 
BRANCH  18  20
ATOM     20  C   UNL     1      51.101  55.045  20.581  1.00  0.00    +0.253 C 
ATOM     21  O   UNL     1      52.201  55.362  20.132  1.00  0.00    -0.269 OA
BRANCH  20  22
ATOM     22  C   UNL     1      50.109  56.121  20.813  1.00  0.00    +0.040 A 
ATOM     23  C   UNL     1      48.915  56.109  20.084  1.00  0.00    +0.014 A 
ATOM     24  C   UNL     1      50.328  57.097  21.792  1.00  0.00    +0.014 A 
ATOM     25  C   UNL     1      47.958  57.101  20.307  1.00  0.00    +0.001 A 
ATOM     26  C   UNL     1      49.367  58.086  22.011  1.00  0.00    +0.001 A 
ATOM     27  C   UNL     1      48.187  58.089  21.265  1.00  0.00    +0.000 A 
ENDBRANCH  20  22
ENDBRANCH  18  20
ENDBRANCH  11  14
ENDBRANCH   4  10
TORSDOF 6
ENDMDL
MODEL 3
REMARK VINA RESULT:    -7.893      2.833      7.760
REMARK INTER + INTRA:         -11.337
REMARK INTER:                 -11.024
REMARK INTRA:                  -0.312
REMARK UNBOUND:                -0.675
REMARK SMILES CCCNC(=S)NNC(=O)[C@@H]1CCCN(C(=O)c2ccccc2)C1
REMARK SMILES IDX 4 1 5 2 6 3 7 4 3 7 2 8 1 9 8 10 9 11 10 12 11 14 12 15
REMARK SMILES IDX 24 16 13 17 15 18 14 19 16 20 17 21 18 22 19 23 23 24 20 25
REMARK SMILES IDX 22 26 21 27
REMARK H PARENT 4 5 7 6 8 13
ROOT
ATOM      1  N   UNL     1      47.584  48.585  16.065  1.00  0.00    -0.361 N 
ATOM      2  C   UNL     1      48.543  49.186  16.822  1.00  0.00    +0.185 C 
ATOM      3  S   UNL     1      48.859  48.563  18.343  1.00  0.00    -0.039 S 
ATOM      4  N   UNL     1      49.209  50.241  16.252  1.00  0.00    -0.274 N 
ATOM      5  H   UNL     1      47.165  47.771  16.504  1.00  0.00    +0.162 HD
ATOM      6  H   UNL     1      48.764  50.756  15.496  1.00  0.00    +0.190 HD
ENDROOT
BRANCH   1   7
ATOM      7  C   UNL     1      47.219  48.843  14.682  1.00  0.00    +0.115 C 
BRANCH   7   8
ATOM      8  C   UNL     1      46.009  48.018  14.252  1.00  0.00    +0.018 C 
ATOM      9  C   UNL     1      44.934  48.009  15.326  1.00  0.00    +0.006 C 
ENDBRANCH   7   8
ENDBRANCH   1   7
BRANCH   4  10
ATOM     10  N   UNL     1      50.071  51.037  17.030  1.00  0.00    -0.268 N 
ATOM     11  C   UNL     1      49.525  52.154  17.635  1.00  0.00    +0.243 C 
ATOM     12  O   UNL     1      48.397  52.562  17.364  1.00  0.00    -0.273 OA
ATOM     13  H   UNL     1      50.888  50.565  17.414  1.00  0.00    +0.191 HD
BRANCH  11  14
ATOM     14  C   UNL     1      50.434  52.802  18.663  1.00  0.00    +0.100 C 
ATOM     15  C   UNL     1      51.437  51.774  19.222  1.00  0.00    +0.017 C 
ATOM     16  C   UNL     1      49.603  53.397  19.804  1.00  0.00    +0.133 C 
ATOM     17  C   UNL     1      52.263  52.352  20.375  1.00  0.00    +0.022 C 
ATOM     18  N   UNL     1      50.476  53.961  20.834  1.00  0.00    -0.338 N 
ATOM     19  C   UNL     1      51.371  52.979  21.448  1.00  0.00    +0.120 C 
BRANCH  18  20
ATOM     20  C   UNL     1      50.819  55.312  20.713  1.00  0.00    +0.253 C 
ATOM     21  O   UNL     1      51.963  55.699  20.486  1.00  0.00    -0.269 OA
BRANCH  20  22
ATOM     22  C   UNL     1      49.754  56.333  20.850  1.00  0.00    +0.040 A 
ATOM     23  C   UNL     1      49.901  57.339  21.811  1.00  0.00    +0.014 A 
ATOM     24  C   UNL     1      48.650  56.335  19.991  1.00  0.00    +0.014 A 
ATOM     25  C   UNL     1      48.920  58.324  21.938  1.00  0.00    +0.001 A 
ATOM     26  C   UNL     1      47.672  57.323  20.121  1.00  0.00    +0.001 A 
ATOM     27  C   UNL     1      47.805  58.312  21.098  1.00  0.00    +0.000 A 
ENDBRANCH  20  22
ENDBRANCH  18  20
ENDBRANCH  11  14
ENDBRANCH   4  10
TORSDOF 6
ENDMDL
MODEL 4
REMARK VINA RESULT:    -7.881      2.413      3.317
REMARK INTER + INTRA:         -11.320
REMARK INTER:                 -10.644
REMARK INTRA:                  -0.676
REMARK UNBOUND:                -0.675
REMARK SMILES CCCNC(=S)NNC(=O)[C@@H]1CCCN(C(=O)c2ccccc2)C1
REMARK SMILES IDX 4 1 5 2 6 3 7 4 3 7 2 8 1 9 8 10 9 11 10 12 11 14 12 15
REMARK SMILES IDX 24 16 13 17 15 18 14 19 16 20 17 21 18 22 19 23 23 24 20 25
REMARK SMILES IDX 22 26 21 27
REMARK H PARENT 4 5 7 6 8 13
ROOT
ATOM      1  N   UNL     1      51.775  56.890  20.152  1.00  0.00    -0.361 N 
ATOM      2  C   UNL     1      50.904  56.001  19.599  1.00  0.00    +0.185 C 
ATOM      3  S   UNL     1      49.299  56.453  19.449  1.00  0.00    -0.039 S 
ATOM      4  N   UNL     1      51.428  54.809  19.167  1.00  0.00    -0.274 N 
ATOM      5  H   UNL     1      51.353  57.780  20.397  1.00  0.00    +0.162 HD
ATOM      6  H   UNL     1      52.302  54.478  19.572  1.00  0.00    +0.190 HD
ENDROOT
BRANCH   1   7
ATOM      7  C   UNL     1      53.221  56.796  20.272  1.00  0.00    +0.115 C 
BRANCH   7   8
ATOM      8  C   UNL     1      53.756  57.686  21.391  1.00  0.00    +0.018 C 
ATOM      9  C   UNL     1      52.775  58.793  21.736  1.00  0.00    +0.006 C 
ENDBRANCH   7   8
ENDBRANCH   1   7
BRANCH   4  10
ATOM     10  N   UNL     1      50.574  53.765  18.767  1.00  0.00    -0.268 N 
ATOM     11  C   UNL     1      51.013  52.471  18.983  1.00  0.00    +0.243 C 
ATOM     12  O   UNL     1      52.166  52.218  19.326  1.00  0.00    -0.273 OA
ATOM     13  H   UNL     1      49.583  53.994  18.717  1.00  0.00    +0.191 HD
BRANCH  11  14
ATOM     14  C   UNL     1      49.939  51.417  18.780  1.00  0.00    +0.100 C 
ATOM     15  C   UNL     1      50.295  50.128  19.544  1.00  0.00    +0.017 C 
ATOM     16  C   UNL     1      49.772  51.114  17.288  1.00  0.00    +0.133 C 
ATOM     17  C   UNL     1      49.315  48.992  19.232  1.00  0.00    +0.022 C 
ATOM     18  N   UNL     1      48.789  50.049  17.089  1.00  0.00    -0.338 N 
ATOM     19  C   UNL     1      49.155  48.784  17.725  1.00  0.00    +0.120 C 
BRANCH  18  20
ATOM     20  C   UNL     1      47.457  50.434  16.903  1.00  0.00    +0.253 C 
ATOM     21  O   UNL     1      47.087  51.606  16.909  1.00  0.00    -0.269 OA
BRANCH  20  22
ATOM     22  C   UNL     1      46.436  49.385  16.673  1.00  0.00    +0.040 A 
ATOM     23  C   UNL     1      46.431  48.701  15.453  1.00  0.00    +0.014 A 
ATOM     24  C   UNL     1      45.531  49.033  17.682  1.00  0.00    +0.014 A 
ATOM     25  C   UNL     1      45.493  47.693  15.228  1.00  0.00    +0.001 A 
ATOM     26  C   UNL     1      44.595  48.023  17.452  1.00  0.00    +0.001 A 
ATOM     27  C   UNL     1      44.574  47.359  16.224  1.00  0.00    +0.000 A 
ENDBRANCH  20  22
ENDBRANCH  18  20
ENDBRANCH  11  14
ENDBRANCH   4  10
TORSDOF 6
ENDMDL
MODEL 5
REMARK VINA RESULT:    -7.740      2.337      2.718
REMARK INTER + INTRA:         -11.129
REMARK INTER:                 -10.412
REMARK INTRA:                  -0.717
REMARK UNBOUND:                -0.675
REMARK SMILES CCCNC(=S)NNC(=O)[C@@H]1CCCN(C(=O)c2ccccc2)C1
REMARK SMILES IDX 4 1 5 2 6 3 7 4 3 7 2 8 1 9 8 10 9 11 10 12 11 14 12 15
REMARK SMILES IDX 24 16 13 17 15 18 14 19 16 20 17 21 18 22 19 23 23 24 20 25
REMARK SMILES IDX 22 26 21 27
REMARK H PARENT 4 5 7 6 8 13
ROOT
ATOM      1  N   UNL     1      48.421  58.587  20.201  1.00  0.00    -0.361 N 
ATOM      2  C   UNL     1      48.872  57.331  20.474  1.00  0.00    +0.185 C 
ATOM      3  S   UNL     1      50.117  57.160  21.581  1.00  0.00    -0.039 S 
ATOM      4  N   UNL     1      48.233  56.294  19.844  1.00  0.00    -0.274 N 
ATOM      5  H   UNL     1      48.882  59.314  20.739  1.00  0.00    +0.162 HD
ATOM      6  H   UNL     1      47.735  56.476  18.975  1.00  0.00    +0.190 HD
ENDROOT
BRANCH   1   7
ATOM      7  C   UNL     1      47.281  58.991  19.394  1.00  0.00    +0.115 C 
BRANCH   7   8
ATOM      8  C   UNL     1      47.513  60.342  18.723  1.00  0.00    +0.018 C 
ATOM      9  C   UNL     1      46.760  61.452  19.435  1.00  0.00    +0.006 C 
ENDBRANCH   7   8
ENDBRANCH   1   7
BRANCH   4  10
ATOM     10  N   UNL     1      48.759  54.990  19.918  1.00  0.00    -0.268 N 
ATOM     11  C   UNL     1      49.014  54.344  18.723  1.00  0.00    +0.243 C 
ATOM     12  O   UNL     1      48.628  54.785  17.642  1.00  0.00    -0.273 OA
ATOM     13  H   UNL     1      49.267  54.763  20.770  1.00  0.00    +0.191 HD
BRANCH  11  14
ATOM     14  C   UNL     1      49.822  53.068  18.876  1.00  0.00    +0.100 C 
ATOM     15  C   UNL     1      51.331  53.377  18.856  1.00  0.00    +0.017 C 
ATOM     16  C   UNL     1      49.473  52.083  17.756  1.00  0.00    +0.133 C 
ATOM     17  C   UNL     1      52.175  52.099  18.848  1.00  0.00    +0.022 C 
ATOM     18  N   UNL     1      50.299  50.879  17.856  1.00  0.00    -0.338 N 
ATOM     19  C   UNL     1      51.735  51.140  17.741  1.00  0.00    +0.120 C 
BRANCH  18  20
ATOM     20  C   UNL     1      49.791  49.815  18.608  1.00  0.00    +0.253 C 
ATOM     21  O   UNL     1      50.229  49.501  19.713  1.00  0.00    -0.269 OA
BRANCH  20  22
ATOM     22  C   UNL     1      48.659  49.031  18.061  1.00  0.00    +0.040 A 
ATOM     23  C   UNL     1      48.794  48.435  16.804  1.00  0.00    +0.014 A 
ATOM     24  C   UNL     1      47.496  48.831  18.815  1.00  0.00    +0.014 A 
ATOM     25  C   UNL     1      47.748  47.672  16.283  1.00  0.00    +0.001 A 
ATOM     26  C   UNL     1      46.453  48.067  18.289  1.00  0.00    +0.001 A 
ATOM     27  C   UNL     1      46.578  47.493  17.023  1.00  0.00    +0.000 A 
ENDBRANCH  20  22
ENDBRANCH  18  20
ENDBRANCH  11  14
ENDBRANCH   4  10
TORSDOF 6
ENDMDL
