MODEL 1
REMARK VINA RESULT:    -8.950      0.000      0.000
REMARK INTER + INTRA:         -12.841
REMARK INTER:                 -12.089
REMARK INTRA:                  -0.752
REMARK UNBOUND:                -0.752
REMARK SMILES O=C(CCC1CCCCC1)NNC(=O)C(=O)Nc1ccccc1
REMARK SMILES IDX 11 1 2 2 1 3 12 5 13 6 14 7 15 9 17 10 16 11 18 13 21 14
REMARK SMILES IDX 20 15 22 16 19 17 23 18 3 19 4 20 5 21 6 22 10 23 7 24 9 25
REMARK SMILES IDX 8 26
REMARK H PARENT 11 4 12 8 17 12
ROOT
ATOM      1  N   UNL     1      50.458  50.406  16.681  1.00  0.00    -0.267 N 
ATOM      2  C   UNL     1      49.237  50.496  16.035  1.00  0.00    +0.238 C 
ATOM      3  O   UNL     1      48.677  51.567  15.817  1.00  0.00    -0.273 OA
ATOM      4  H   UNL     1      50.757  49.528  17.103  1.00  0.00    +0.191 HD
ENDROOT
BRANCH   1   5
ATOM      5  N   UNL     1      50.954  51.575  17.279  1.00  0.00    -0.259 N 
ATOM      6  C   UNL     1      50.637  51.818  18.599  1.00  0.00    +0.328 C 
ATOM      7  O   UNL     1      50.136  51.011  19.372  1.00  0.00    -0.262 OA
ATOM      8  H   UNL     1      51.154  52.368  16.662  1.00  0.00    +0.191 HD
BRANCH   6   9
ATOM      9  C   UNL     1      50.960  53.250  19.064  1.00  0.00    +0.315 C 
ATOM     10  N   UNL     1      49.998  53.738  19.925  1.00  0.00    -0.318 N 
ATOM     11  O   UNL     1      51.975  53.789  18.650  1.00  0.00    -0.263 OA
ATOM     12  H   UNL     1      49.234  53.093  20.115  1.00  0.00    +0.170 HD
BRANCH  10  13
ATOM     13  C   UNL     1      49.955  54.997  20.547  1.00  0.00    +0.041 A 
ATOM     14  C   UNL     1      49.728  57.542  21.708  1.00  0.00    +0.000 A 
ATOM     15  C   UNL     1      50.803  56.717  22.030  1.00  0.00    +0.002 A 
ATOM     16  C   UNL     1      48.763  57.099  20.807  1.00  0.00    +0.002 A 
ATOM     17  C   UNL     1      50.918  55.448  21.451  1.00  0.00    +0.026 A 
ATOM     18  C   UNL     1      48.877  55.832  20.229  1.00  0.00    +0.026 A 
ENDBRANCH  10  13
ENDBRANCH   6   9
ENDBRANCH   1   5
BRANCH   2  19
ATOM     19  C   UNL     1      48.683  49.142  15.638  1.00  0.00    +0.102 C 
BRANCH  19  20
ATOM     20  C   UNL     1      48.240  48.323  16.852  1.00  0.00    +0.013 C 
BRANCH  20  21
ATOM     21  C   UNL     1      47.249  49.067  17.774  1.00  0.00    -0.011 C 
ATOM     22  C   UNL     1      45.973  49.533  17.060  1.00  0.00    +0.003 C 
ATOM     23  C   UNL     1      46.895  48.199  19.003  1.00  0.00    +0.003 C 
ATOM     24  C   UNL     1      45.096  48.373  16.587  1.00  0.00    +0.000 C 
ATOM     25  C   UNL     1      45.486  47.601  18.969  1.00  0.00    +0.000 C 
ATOM     26  C   UNL     1      45.069  47.195  17.563  1.00  0.00    +0.000 C 
ENDBRANCH  20  21
ENDBRANCH  19  20
ENDBRANCH   2  19
TORSDOF 6
ENDMDL
MODEL 2
REMARK VINA RESULT:    -8.869      1.180      1.762
REMARK INTER + INTRA:         -12.731
REMARK INTER:                 -12.035
REMARK INTRA:                  -0.696
REMARK UNBOUND:                -0.752
REMARK SMILES O=C(CCC1CCCCC1)NNC(=O)C(=O)Nc1ccccc1
REMARK SMILES IDX 11 1 2 2 1 3 12 5 13 6 14 7 15 9 17 10 16 11 18 13 21 14
REMARK SMILES IDX 20 15 22 16 19 17 23 18 3 19 4 20 5 21 6 22 10 23 7 24 9 25
REMARK SMILES IDX 8 26
REMARK H PARENT 11 4 12 8 17 12
ROOT
ATOM      1  N   UNL     1      50.575  51.252  17.099  1.00  0.00    -0.267 N 
ATOM      2  C   UNL     1      49.385  51.143  16.400  1.00  0.00    +0.238 C 
ATOM      3  O   UNL     1      48.488  51.977  16.479  1.00  0.00    -0.273 OA
ATOM      4  H   UNL     1      51.165  50.435  17.249  1.00  0.00    +0.191 HD
ENDROOT
BRANCH   1   5
ATOM      5  N   UNL     1      50.649  52.251  18.083  1.00  0.00    -0.259 N 
ATOM      6  C   UNL     1      50.547  51.875  19.405  1.00  0.00    +0.328 C 
ATOM      7  O   UNL     1      50.606  50.725  19.826  1.00  0.00    -0.262 OA
ATOM      8  H   UNL     1      50.364  53.197  17.812  1.00  0.00    +0.191 HD
BRANCH   6   9
ATOM      9  C   UNL     1      50.330  53.052  20.374  1.00  0.00    +0.315 C 
ATOM     10  N   UNL     1      49.789  54.148  19.736  1.00  0.00    -0.318 N 
ATOM     11  O   UNL     1      50.643  52.914  21.547  1.00  0.00    -0.263 OA
ATOM     12  H   UNL     1      49.621  54.018  18.740  1.00  0.00    +0.170 HD
BRANCH  10  13
ATOM     13  C   UNL     1      49.458  55.395  20.292  1.00  0.00    +0.041 A 
ATOM     14  C   UNL     1      48.653  57.878  21.323  1.00  0.00    +0.000 A 
ATOM     15  C   UNL     1      49.887  57.339  21.677  1.00  0.00    +0.002 A 
ATOM     16  C   UNL     1      47.818  57.181  20.454  1.00  0.00    +0.002 A 
ATOM     17  C   UNL     1      50.290  56.101  21.164  1.00  0.00    +0.026 A 
ATOM     18  C   UNL     1      48.219  55.945  19.941  1.00  0.00    +0.026 A 
ENDBRANCH  10  13
ENDBRANCH   6   9
ENDBRANCH   1   5
BRANCH   2  19
ATOM     19  C   UNL     1      49.323  49.894  15.541  1.00  0.00    +0.102 C 
BRANCH  19  20
ATOM     20  C   UNL     1      47.897  49.579  15.087  1.00  0.00    +0.013 C 
BRANCH  20  21
ATOM     21  C   UNL     1      47.364  48.226  15.610  1.00  0.00    -0.011 C 
ATOM     22  C   UNL     1      47.604  48.008  17.110  1.00  0.00    +0.003 C 
ATOM     23  C   UNL     1      45.863  48.068  15.274  1.00  0.00    +0.003 C 
ATOM     24  C   UNL     1      46.814  48.977  17.989  1.00  0.00    +0.000 C 
ATOM     25  C   UNL     1      44.927  48.221  16.475  1.00  0.00    +0.000 C 
ATOM     26  C   UNL     1      45.415  49.283  17.450  1.00  0.00    +0.000 C 
ENDBRANCH  20  21
ENDBRANCH  19  20
ENDBRANCH   2  19
TORSDOF 6
ENDMDL
MODEL 3
REMARK VINA RESULT:    -8.277      2.134      7.926
REMARK INTER + INTRA:         -11.931
REMARK INTER:                 -11.396
REMARK INTRA:                  -0.536
REMARK UNBOUND:                -0.752
REMARK SMILES O=C(CCC1CCCCC1)NNC(=O)C(=O)Nc1ccccc1
REMARK SMILES IDX 11 1 2 2 1 3 12 5 13 6 14 7 15 9 17 10 16 11 18 13 21 14
REMARK SMILES IDX 20 15 22 16 19 17 23 18 3 19 4 20 5 21 6 22 10 23 7 24 9 25
REMARK SMILES IDX 8 26
REMARK H PARENT 11 4 12 8 17 12
ROOT
ATOM      1  N   UNL     1      52.161  54.765  19.667  1.00  0.00    -0.267 N 
ATOM      2  C   UNL     1      52.148  55.287  20.950  1.00  0.00    +0.238 C 
ATOM      3  O   UNL     1      52.082  54.583  21.954  1.00  0.00    -0.273 OA
ATOM      4  H   UNL     1      51.925  55.350  18.867  1.00  0.00    +0.191 HD
ENDROOT
BRANCH   1   5
ATOM      5  N   UNL     1      51.881  53.396  19.531  1.00  0.00    -0.259 N 
ATOM      6  C   UNL     1      52.544  52.688  18.551  1.00  0.00    +0.328 C 
ATOM      7  O   UNL     1      53.514  53.086  17.916  1.00  0.00    -0.262 OA
ATOM      8  H   UNL     1      50.959  53.074  19.839  1.00  0.00    +0.191 HD
BRANCH   6   9
ATOM      9  C   UNL     1      51.951  51.293  18.280  1.00  0.00    +0.315 C 
ATOM     10  N   UNL     1      50.786  51.365  17.545  1.00  0.00    -0.318 N 
ATOM     11  O   UNL     1      52.532  50.311  18.718  1.00  0.00    -0.263 OA
ATOM     12  H   UNL     1      50.498  52.310  17.301  1.00  0.00    +0.170 HD
BRANCH  10  13
ATOM     13  C   UNL     1      49.971  50.305  17.112  1.00  0.00    +0.041 A 
ATOM     14  C   UNL     1      48.387  48.225  16.093  1.00  0.00    +0.000 A 
ATOM     15  C   UNL     1      48.450  48.451  17.466  1.00  0.00    +0.002 A 
ATOM     16  C   UNL     1      49.113  49.037  15.226  1.00  0.00    +0.002 A 
ATOM     17  C   UNL     1      49.239  49.488  17.976  1.00  0.00    +0.026 A 
ATOM     18  C   UNL     1      49.901  50.072  15.734  1.00  0.00    +0.026 A 
ENDBRANCH  10  13
ENDBRANCH   6   9
ENDBRANCH   1   5
BRANCH   2  19
ATOM     19  C   UNL     1      52.221  56.801  20.966  1.00  0.00    +0.102 C 
BRANCH  19  20
ATOM     20  C   UNL     1      50.921  57.446  20.483  1.00  0.00    +0.013 C 
BRANCH  20  21
ATOM     21  C   UNL     1      49.669  56.968  21.252  1.00  0.00    -0.011 C 
ATOM     22  C   UNL     1      48.724  58.105  21.660  1.00  0.00    +0.003 C 
ATOM     23  C   UNL     1      48.907  55.897  20.437  1.00  0.00    +0.003 C 
ATOM     24  C   UNL     1      48.068  58.795  20.464  1.00  0.00    +0.000 C 
ATOM     25  C   UNL     1      47.600  56.391  19.813  1.00  0.00    +0.000 C 
ATOM     26  C   UNL     1      47.702  57.832  19.334  1.00  0.00    +0.000 C 
ENDBRANCH  20  21
ENDBRANCH  19  20
ENDBRANCH   2  19
TORSDOF 6
ENDMDL
MODEL 4
REMARK VINA RESULT:    -8.067      1.663      8.009
REMARK INTER + INTRA:         -11.648
REMARK INTER:                 -10.812
REMARK INTRA:                  -0.837
REMARK UNBOUND:                -0.752
REMARK SMILES O=C(CCC1CCCCC1)NNC(=O)C(=O)Nc1ccccc1
REMARK SMILES IDX 11 1 2 2 1 3 12 5 13 6 14 7 15 9 17 10 16 11 18 13 21 14
REMARK SMILES IDX 20 15 22 16 19 17 23 18 3 19 4 20 5 21 6 22 10 23 7 24 9 25
REMARK SMILES IDX 8 26
REMARK H PARENT 11 4 12 8 17 12
ROOT
ATOM      1  N   UNL     1      51.831  53.503  20.047  1.00  0.00    -0.267 N 
ATOM      2  C   UNL     1      51.534  53.774  21.372  1.00  0.00    +0.238 C 
ATOM      3  O   UNL     1      50.989  52.960  22.112  1.00  0.00    -0.273 OA
ATOM      4  H   UNL     1      52.006  54.261  19.390  1.00  0.00    +0.191 HD
ENDROOT
BRANCH   1   5
ATOM      5  N   UNL     1      51.295  52.327  19.499  1.00  0.00    -0.259 N 
ATOM      6  C   UNL     1      50.311  52.442  18.541  1.00  0.00    +0.328 C 
ATOM      7  O   UNL     1      49.997  53.475  17.962  1.00  0.00    -0.262 OA
ATOM      8  H   UNL     1      51.327  51.483  20.080  1.00  0.00    +0.191 HD
BRANCH   6   9
ATOM      9  C   UNL     1      49.581  51.121  18.235  1.00  0.00    +0.315 C 
ATOM     10  N   UNL     1      48.572  51.297  17.311  1.00  0.00    -0.318 N 
ATOM     11  O   UNL     1      49.940  50.103  18.807  1.00  0.00    -0.263 OA
ATOM     12  H   UNL     1      48.461  52.253  16.980  1.00  0.00    +0.170 HD
BRANCH  10  13
ATOM     13  C   UNL     1      47.697  50.326  16.792  1.00  0.00    +0.041 A 
ATOM     14  C   UNL     1      46.052  48.374  15.626  1.00  0.00    +0.000 A 
ATOM     15  C   UNL     1      45.716  48.931  16.859  1.00  0.00    +0.002 A 
ATOM     16  C   UNL     1      47.209  48.791  14.973  1.00  0.00    +0.002 A 
ATOM     17  C   UNL     1      46.536  49.904  17.441  1.00  0.00    +0.026 A 
ATOM     18  C   UNL     1      48.027  49.763  15.554  1.00  0.00    +0.026 A 
ENDBRANCH  10  13
ENDBRANCH   6   9
ENDBRANCH   1   5
BRANCH   2  19
ATOM     19  C   UNL     1      51.953  55.170  21.792  1.00  0.00    +0.102 C 
BRANCH  19  20
ATOM     20  C   UNL     1      50.764  56.013  22.257  1.00  0.00    +0.013 C 
BRANCH  20  21
ATOM     21  C   UNL     1      50.573  57.314  21.446  1.00  0.00    -0.011 C 
ATOM     22  C   UNL     1      50.440  57.086  19.935  1.00  0.00    +0.003 C 
ATOM     23  C   UNL     1      49.361  58.112  21.981  1.00  0.00    +0.003 C 
ATOM     24  C   UNL     1      49.167  56.331  19.554  1.00  0.00    +0.000 C 
ATOM     25  C   UNL     1      48.129  58.073  21.074  1.00  0.00    +0.000 C 
ATOM     26  C   UNL     1      47.954  56.719  20.402  1.00  0.00    +0.000 C 
ENDBRANCH  20  21
ENDBRANCH  19  20
ENDBRANCH   2  19
TORSDOF 6
ENDMDL
MODEL 5
REMARK VINA RESULT:    -8.058      1.514      8.321
REMARK INTER + INTRA:         -11.636
REMARK INTER:                 -10.881
REMARK INTRA:                  -0.755
REMARK UNBOUND:                -0.752
REMARK SMILES O=C(CCC1CCCCC1)NNC(=O)C(=O)Nc1ccccc1
REMARK SMILES IDX 11 1 2 2 1 3 12 5 13 6 14 7 15 9 17 10 16 11 18 13 21 14
REMARK SMILES IDX 20 15 22 16 19 17 23 18 3 19 4 20 5 21 6 22 10 23 7 24 9 25
REMARK SMILES IDX 8 26
REMARK H PARENT 11 4 12 8 17 12
ROOT
ATOM      1  N   UNL     1      51.411  52.546  17.979  1.00  0.00    -0.267 N 
ATOM      2  C   UNL     1      51.841  52.818  19.267  1.00  0.00    +0.238 C 
ATOM      3  O   UNL     1      51.767  52.000  20.179  1.00  0.00    -0.273 OA
ATOM      4  H   UNL     1      51.210  53.305  17.329  1.00  0.00    +0.191 HD
ENDROOT
BRANCH   1   5
ATOM      5  N   UNL     1      50.681  51.363  17.784  1.00  0.00    -0.259 N 
ATOM      6  C   UNL     1      49.396  51.461  17.293  1.00  0.00    +0.328 C 
ATOM      7  O   UNL     1      48.893  52.468  16.807  1.00  0.00    -0.262 OA
ATOM      8  H   UNL     1      50.930  50.559  18.368  1.00  0.00    +0.191 HD
BRANCH   6   9
ATOM      9  C   UNL     1      48.583  50.158  17.407  1.00  0.00    +0.315 C 
ATOM     10  N   UNL     1      47.373  50.250  16.752  1.00  0.00    -0.318 N 
ATOM     11  O   UNL     1      49.057  49.222  18.034  1.00  0.00    -0.263 OA
ATOM     12  H   UNL     1      47.202  51.148  16.303  1.00  0.00    +0.170 HD
BRANCH  10  13
ATOM     13  C   UNL     1      46.374  49.269  16.642  1.00  0.00    +0.041 A 
ATOM     14  C   UNL     1      44.434  47.274  16.270  1.00  0.00    +0.000 A 
ATOM     15  C   UNL     1      44.488  47.987  17.466  1.00  0.00    +0.002 A 
ATOM     16  C   UNL     1      45.347  47.556  15.257  1.00  0.00    +0.002 A 
ATOM     17  C   UNL     1      45.455  48.981  17.652  1.00  0.00    +0.026 A 
ATOM     18  C   UNL     1      46.312  48.549  15.442  1.00  0.00    +0.026 A 
ENDBRANCH  10  13
ENDBRANCH   6   9
ENDBRANCH   1   5
BRANCH   2  19
ATOM     19  C   UNL     1      52.402  54.219  19.413  1.00  0.00    +0.102 C 
BRANCH  19  20
ATOM     20  C   UNL     1      51.299  55.277  19.472  1.00  0.00    +0.013 C 
BRANCH  20  21
ATOM     21  C   UNL     1      50.475  55.241  20.778  1.00  0.00    -0.011 C 
ATOM     22  C   UNL     1      51.329  55.333  22.049  1.00  0.00    +0.003 C 
ATOM     23  C   UNL     1      49.396  56.349  20.769  1.00  0.00    +0.003 C 
ATOM     24  C   UNL     1      52.031  56.683  22.200  1.00  0.00    +0.000 C 
ATOM     25  C   UNL     1      49.696  57.530  21.696  1.00  0.00    +0.000 C 
ATOM     26  C   UNL     1      51.180  57.866  21.735  1.00  0.00    +0.000 C 
ENDBRANCH  20  21
ENDBRANCH  19  20
ENDBRANCH   2  19
TORSDOF 6
ENDMDL
