MODEL 1
REMARK VINA RESULT:    -8.776      0.000      0.000
REMARK INTER + INTRA:         -12.111
REMARK INTER:                 -11.342
REMARK INTRA:                  -0.770
REMARK UNBOUND:                -0.770
REMARK SMILES Cc1cccc(C(=O)NNC(=O)[C@@H](C)NC(=O)C2CCCC2)c1
REMARK SMILES IDX 10 1 11 2 12 3 9 5 7 6 8 7 6 9 2 10 3 11 23 12 4 13 5 14
REMARK SMILES IDX 1 15 13 16 14 17 15 18 16 19 17 20 18 22 19 23 22 24 20 25
REMARK SMILES IDX 21 26
REMARK H PARENT 10 4 9 8 15 21
ROOT
ATOM      1  N   UNL     1      50.499  49.373  18.839  1.00  0.00    -0.266 N 
ATOM      2  C   UNL     1      50.725  49.519  20.196  1.00  0.00    +0.260 C 
ATOM      3  O   UNL     1      50.057  48.927  21.047  1.00  0.00    -0.271 OA
ATOM      4  H   UNL     1      50.821  50.080  18.178  1.00  0.00    +0.191 HD
ENDROOT
BRANCH   1   5
ATOM      5  N   UNL     1      49.309  48.719  18.459  1.00  0.00    -0.263 N 
ATOM      6  C   UNL     1      48.279  49.531  18.017  1.00  0.00    +0.269 C 
ATOM      7  O   UNL     1      48.439  50.729  17.792  1.00  0.00    -0.267 OA
ATOM      8  H   UNL     1      49.110  47.863  18.975  1.00  0.00    +0.191 HD
BRANCH   6   9
ATOM      9  C   UNL     1      46.943  48.890  17.865  1.00  0.00    +0.041 A 
ATOM     10  C   UNL     1      45.074  47.589  18.724  1.00  0.00    -0.050 A 
ATOM     11  C   UNL     1      44.429  47.725  17.487  1.00  0.00    +0.003 A 
ATOM     12  C   UNL     1      46.331  48.183  18.910  1.00  0.00    +0.017 A 
ATOM     13  C   UNL     1      45.043  48.414  16.441  1.00  0.00    +0.001 A 
ATOM     14  C   UNL     1      46.299  48.991  16.626  1.00  0.00    +0.014 A 
ATOM     15  C   UNL     1      44.405  46.860  19.852  1.00  0.00    +0.044 C 
ENDBRANCH   6   9
ENDBRANCH   1   5
BRANCH   2  16
ATOM     16  C   UNL     1      51.830  50.530  20.549  1.00  0.00    +0.170 C 
ATOM     17  C   UNL     1      53.089  50.220  19.750  1.00  0.00    +0.041 C 
BRANCH  16  18
ATOM     18  N   UNL     1      51.348  51.871  20.234  1.00  0.00    -0.344 N 
ATOM     19  C   UNL     1      51.296  52.836  21.220  1.00  0.00    +0.223 C 
ATOM     20  O   UNL     1      51.808  52.687  22.325  1.00  0.00    -0.275 OA
ATOM     21  H   UNL     1      50.609  51.913  19.540  1.00  0.00    +0.164 HD
BRANCH  19  22
ATOM     22  C   UNL     1      50.534  54.092  20.802  1.00  0.00    +0.078 C 
ATOM     23  C   UNL     1      50.964  55.338  21.575  1.00  0.00    +0.013 C 
ATOM     24  C   UNL     1      50.813  54.482  19.353  1.00  0.00    +0.013 C 
ATOM     25  C   UNL     1      52.157  55.902  20.806  1.00  0.00    +0.001 C 
ATOM     26  C   UNL     1      52.125  55.256  19.422  1.00  0.00    +0.001 C 
ENDBRANCH  19  22
ENDBRANCH  16  18
ENDBRANCH   2  16
TORSDOF 5
ENDMDL
MODEL 2
REMARK VINA RESULT:    -8.678      2.124      8.238
REMARK INTER + INTRA:         -11.984
REMARK INTER:                 -11.285
REMARK INTRA:                  -0.698
REMARK UNBOUND:                -0.770
REMARK SMILES Cc1cccc(C(=O)NNC(=O)[C@@H](C)NC(=O)C2CCCC2)c1
REMARK SMILES IDX 10 1 11 2 12 3 9 5 7 6 8 7 6 9 2 10 3 11 23 12 4 13 5 14
REMARK SMILES IDX 1 15 13 16 14 17 15 18 16 19 17 20 18 22 19 23 22 24 20 25
REMARK SMILES IDX 21 26
REMARK H PARENT 10 4 9 8 15 21
ROOT
ATOM      1  N   UNL     1      50.475  52.455  18.190  1.00  0.00    -0.266 N 
ATOM      2  C   UNL     1      49.266  51.950  17.744  1.00  0.00    +0.260 C 
ATOM      3  O   UNL     1      48.262  52.654  17.612  1.00  0.00    -0.271 OA
ATOM      4  H   UNL     1      51.181  51.837  18.592  1.00  0.00    +0.191 HD
ENDROOT
BRANCH   1   5
ATOM      5  N   UNL     1      50.459  53.754  18.737  1.00  0.00    -0.263 N 
ATOM      6  C   UNL     1      50.353  53.838  20.115  1.00  0.00    +0.269 C 
ATOM      7  O   UNL     1      50.450  52.849  20.840  1.00  0.00    -0.267 OA
ATOM      8  H   UNL     1      50.033  54.462  18.141  1.00  0.00    +0.191 HD
BRANCH   6   9
ATOM      9  C   UNL     1      50.072  55.186  20.681  1.00  0.00    +0.041 A 
ATOM     10  C   UNL     1      48.691  57.178  20.903  1.00  0.00    -0.050 A 
ATOM     11  C   UNL     1      49.626  57.709  21.801  1.00  0.00    +0.003 A 
ATOM     12  C   UNL     1      48.916  55.908  20.352  1.00  0.00    +0.017 A 
ATOM     13  C   UNL     1      50.784  57.000  22.119  1.00  0.00    +0.001 A 
ATOM     14  C   UNL     1      51.011  55.744  21.556  1.00  0.00    +0.014 A 
ATOM     15  C   UNL     1      47.438  57.936  20.575  1.00  0.00    +0.044 C 
ENDBRANCH   6   9
ENDBRANCH   1   5
BRANCH   2  16
ATOM     16  C   UNL     1      49.267  50.432  17.493  1.00  0.00    +0.170 C 
ATOM     17  C   UNL     1      49.889  49.712  18.682  1.00  0.00    +0.041 C 
BRANCH  16  18
ATOM     18  N   UNL     1      47.889  49.995  17.300  1.00  0.00    -0.344 N 
ATOM     19  C   UNL     1      47.582  49.101  16.293  1.00  0.00    +0.223 C 
ATOM     20  O   UNL     1      48.437  48.503  15.650  1.00  0.00    -0.275 OA
ATOM     21  H   UNL     1      47.181  50.694  17.496  1.00  0.00    +0.164 HD
BRANCH  19  22
ATOM     22  C   UNL     1      46.080  48.946  16.056  1.00  0.00    +0.078 C 
ATOM     23  C   UNL     1      45.711  47.606  15.422  1.00  0.00    +0.013 C 
ATOM     24  C   UNL     1      45.287  48.930  17.360  1.00  0.00    +0.013 C 
ATOM     25  C   UNL     1      45.546  46.635  16.589  1.00  0.00    +0.001 C 
ATOM     26  C   UNL     1      45.398  47.490  17.846  1.00  0.00    +0.001 C 
ENDBRANCH  19  22
ENDBRANCH  16  18
ENDBRANCH   2  16
TORSDOF 5
ENDMDL
MODEL 3
REMARK VINA RESULT:    -8.651      2.924      6.991
REMARK INTER + INTRA:         -11.950
REMARK INTER:                 -11.084
REMARK INTRA:                  -0.865
REMARK UNBOUND:                -0.770
REMARK SMILES Cc1cccc(C(=O)NNC(=O)[C@@H](C)NC(=O)C2CCCC2)c1
REMARK SMILES IDX 10 1 11 2 12 3 9 5 7 6 8 7 6 9 2 10 3 11 23 12 4 13 5 14
REMARK SMILES IDX 1 15 13 16 14 17 15 18 16 19 17 20 18 22 19 23 22 24 20 25
REMARK SMILES IDX 21 26
REMARK H PARENT 10 4 9 8 15 21
ROOT
ATOM      1  N   UNL     1      49.876  52.508  17.747  1.00  0.00    -0.266 N 
ATOM      2  C   UNL     1      48.844  51.729  17.253  1.00  0.00    +0.260 C 
ATOM      3  O   UNL     1      47.679  52.129  17.201  1.00  0.00    -0.271 OA
ATOM      4  H   UNL     1      50.741  52.078  18.078  1.00  0.00    +0.191 HD
ENDROOT
BRANCH   1   5
ATOM      5  N   UNL     1      49.513  53.686  18.430  1.00  0.00    -0.263 N 
ATOM      6  C   UNL     1      50.550  54.419  18.981  1.00  0.00    +0.269 C 
ATOM      7  O   UNL     1      51.730  54.166  18.742  1.00  0.00    -0.267 OA
ATOM      8  H   UNL     1      48.603  53.651  18.887  1.00  0.00    +0.191 HD
BRANCH   6   9
ATOM      9  C   UNL     1      50.170  55.511  19.919  1.00  0.00    +0.041 A 
ATOM     10  C   UNL     1      48.637  57.230  20.708  1.00  0.00    -0.050 A 
ATOM     11  C   UNL     1      49.539  57.545  21.732  1.00  0.00    +0.003 A 
ATOM     12  C   UNL     1      48.955  56.202  19.807  1.00  0.00    +0.017 A 
ATOM     13  C   UNL     1      50.756  56.870  21.836  1.00  0.00    +0.001 A 
ATOM     14  C   UNL     1      51.074  55.860  20.929  1.00  0.00    +0.014 A 
ATOM     15  C   UNL     1      47.323  57.947  20.607  1.00  0.00    +0.044 C 
ENDBRANCH   6   9
ENDBRANCH   1   5
BRANCH   2  16
ATOM     16  C   UNL     1      49.264  50.308  16.842  1.00  0.00    +0.170 C 
ATOM     17  C   UNL     1      49.889  50.334  15.454  1.00  0.00    +0.041 C 
BRANCH  16  18
ATOM     18  N   UNL     1      50.225  49.807  17.820  1.00  0.00    -0.344 N 
ATOM     19  C   UNL     1      49.780  49.225  18.991  1.00  0.00    +0.223 C 
ATOM     20  O   UNL     1      48.605  48.935  19.185  1.00  0.00    -0.275 OA
ATOM     21  H   UNL     1      51.084  50.341  17.895  1.00  0.00    +0.164 HD
BRANCH  19  22
ATOM     22  C   UNL     1      50.891  48.993  20.014  1.00  0.00    +0.078 C 
ATOM     23  C   UNL     1      52.201  49.686  19.641  1.00  0.00    +0.013 C 
ATOM     24  C   UNL     1      50.562  49.605  21.373  1.00  0.00    +0.013 C 
ATOM     25  C   UNL     1      52.088  51.101  20.204  1.00  0.00    +0.001 C 
ATOM     26  C   UNL     1      50.953  51.071  21.226  1.00  0.00    +0.001 C 
ENDBRANCH  19  22
ENDBRANCH  16  18
ENDBRANCH   2  16
TORSDOF 5
ENDMDL
MODEL 4
REMARK VINA RESULT:    -8.583      2.323      7.427
REMARK INTER + INTRA:         -11.862
REMARK INTER:                 -11.426
REMARK INTRA:                  -0.436
REMARK UNBOUND:                -0.770
REMARK SMILES Cc1cccc(C(=O)NNC(=O)[C@@H](C)NC(=O)C2CCCC2)c1
REMARK SMILES IDX 10 1 11 2 12 3 9 5 7 6 8 7 6 9 2 10 3 11 23 12 4 13 5 14
REMARK SMILES IDX 1 15 13 16 14 17 15 18 16 19 17 20 18 22 19 23 22 24 20 25
REMARK SMILES IDX 21 26
REMARK H PARENT 10 4 9 8 15 21
ROOT
ATOM      1  N   UNL     1      50.377  52.389  19.439  1.00  0.00    -0.266 N 
ATOM      2  C   UNL     1      50.928  51.310  20.106  1.00  0.00    +0.260 C 
ATOM      3  O   UNL     1      50.957  51.236  21.337  1.00  0.00    -0.271 OA
ATOM      4  H   UNL     1      50.635  52.592  18.473  1.00  0.00    +0.191 HD
ENDROOT
BRANCH   1   5
ATOM      5  N   UNL     1      50.076  53.529  20.213  1.00  0.00    -0.263 N 
ATOM      6  C   UNL     1      49.246  54.468  19.624  1.00  0.00    +0.269 C 
ATOM      7  O   UNL     1      48.656  54.249  18.568  1.00  0.00    -0.267 OA
ATOM      8  H   UNL     1      50.817  53.819  20.850  1.00  0.00    +0.191 HD
BRANCH   6   9
ATOM      9  C   UNL     1      49.133  55.783  20.313  1.00  0.00    +0.041 A 
ATOM     10  C   UNL     1      48.058  57.938  20.666  1.00  0.00    -0.050 A 
ATOM     11  C   UNL     1      48.996  58.227  21.665  1.00  0.00    +0.003 A 
ATOM     12  C   UNL     1      48.126  56.707  19.998  1.00  0.00    +0.017 A 
ATOM     13  C   UNL     1      50.008  57.317  21.971  1.00  0.00    +0.001 A 
ATOM     14  C   UNL     1      50.082  56.100  21.293  1.00  0.00    +0.014 A 
ATOM     15  C   UNL     1      46.961  58.912  20.351  1.00  0.00    +0.044 C 
ENDBRANCH   6   9
ENDBRANCH   1   5
BRANCH   2  16
ATOM     16  C   UNL     1      51.556  50.250  19.185  1.00  0.00    +0.170 C 
ATOM     17  C   UNL     1      52.803  49.670  19.838  1.00  0.00    +0.041 C 
BRANCH  16  18
ATOM     18  N   UNL     1      50.572  49.198  18.952  1.00  0.00    -0.344 N 
ATOM     19  C   UNL     1      49.649  49.328  17.932  1.00  0.00    +0.223 C 
ATOM     20  O   UNL     1      49.719  50.207  17.080  1.00  0.00    -0.275 OA
ATOM     21  H   UNL     1      50.241  48.723  19.784  1.00  0.00    +0.164 HD
BRANCH  19  22
ATOM     22  C   UNL     1      48.537  48.281  17.982  1.00  0.00    +0.078 C 
ATOM     23  C   UNL     1      47.262  48.796  18.648  1.00  0.00    +0.013 C 
ATOM     24  C   UNL     1      48.053  47.884  16.590  1.00  0.00    +0.013 C 
ATOM     25  C   UNL     1      46.466  49.472  17.533  1.00  0.00    +0.001 C 
ATOM     26  C   UNL     1      47.059  48.977  16.216  1.00  0.00    +0.001 C 
ENDBRANCH  19  22
ENDBRANCH  16  18
ENDBRANCH   2  16
TORSDOF 5
ENDMDL
MODEL 5
REMARK VINA RESULT:    -7.489      2.586      3.797
REMARK INTER + INTRA:         -10.447
REMARK INTER:                  -9.855
REMARK INTRA:                  -0.592
REMARK UNBOUND:                -0.770
REMARK SMILES Cc1cccc(C(=O)NNC(=O)[C@@H](C)NC(=O)C2CCCC2)c1
REMARK SMILES IDX 10 1 11 2 12 3 9 5 7 6 8 7 6 9 2 10 3 11 23 12 4 13 5 14
REMARK SMILES IDX 1 15 13 16 14 17 15 18 16 19 17 20 18 22 19 23 22 24 20 25
REMARK SMILES IDX 21 26
REMARK H PARENT 10 4 9 8 15 21
ROOT
ATOM      1  N   UNL     1      49.631  53.346  18.009  1.00  0.00    -0.266 N 
ATOM      2  C   UNL     1      49.819  53.858  19.280  1.00  0.00    +0.260 C 
ATOM      3  O   UNL     1      50.061  53.141  20.254  1.00  0.00    -0.271 OA
ATOM      4  H   UNL     1      49.131  53.884  17.299  1.00  0.00    +0.191 HD
ENDROOT
BRANCH   1   5
ATOM      5  N   UNL     1      49.469  51.950  17.903  1.00  0.00    -0.263 N 
ATOM      6  C   UNL     1      48.596  51.506  16.925  1.00  0.00    +0.269 C 
ATOM      7  O   UNL     1      48.125  52.261  16.076  1.00  0.00    -0.267 OA
ATOM      8  H   UNL     1      49.565  51.442  18.781  1.00  0.00    +0.191 HD
BRANCH   6   9
ATOM      9  C   UNL     1      48.216  50.067  16.972  1.00  0.00    +0.041 A 
ATOM     10  C   UNL     1      46.929  48.214  17.885  1.00  0.00    -0.050 A 
ATOM     11  C   UNL     1      47.564  47.348  16.985  1.00  0.00    +0.003 A 
ATOM     12  C   UNL     1      47.254  49.578  17.867  1.00  0.00    +0.017 A 
ATOM     13  C   UNL     1      48.533  47.829  16.104  1.00  0.00    +0.001 A 
ATOM     14  C   UNL     1      48.864  49.183  16.101  1.00  0.00    +0.014 A 
ATOM     15  C   UNL     1      45.875  47.696  18.820  1.00  0.00    +0.044 C 
ENDBRANCH   6   9
ENDBRANCH   1   5
BRANCH   2  16
ATOM     16  C   UNL     1      49.635  55.382  19.383  1.00  0.00    +0.170 C 
ATOM     17  C   UNL     1      48.235  55.701  19.889  1.00  0.00    +0.041 C 
BRANCH  16  18
ATOM     18  N   UNL     1      50.638  55.908  20.303  1.00  0.00    -0.344 N 
ATOM     19  C   UNL     1      51.931  56.123  19.868  1.00  0.00    +0.223 C 
ATOM     20  O   UNL     1      52.253  56.067  18.686  1.00  0.00    -0.275 OA
ATOM     21  H   UNL     1      50.544  55.603  21.266  1.00  0.00    +0.164 HD
BRANCH  19  22
ATOM     22  C   UNL     1      52.911  56.424  21.001  1.00  0.00    +0.078 C 
ATOM     23  C   UNL     1      54.117  57.243  20.546  1.00  0.00    +0.013 C 
ATOM     24  C   UNL     1      52.293  57.306  22.081  1.00  0.00    +0.013 C 
ATOM     25  C   UNL     1      53.678  58.703  20.646  1.00  0.00    +0.001 C 
ATOM     26  C   UNL     1      52.435  58.721  21.533  1.00  0.00    +0.001 C 
ENDBRANCH  19  22
ENDBRANCH  16  18
ENDBRANCH   2  16
TORSDOF 5
ENDMDL
