MODEL 1
REMARK VINA RESULT:    -8.459      0.000      0.000
REMARK INTER + INTRA:         -12.089
REMARK INTER:                 -11.426
REMARK INTRA:                  -0.663
REMARK UNBOUND:                -0.663
REMARK SMILES Cc1cc(C)c2c(c1)N(C(=O)CCCCNC(N)=O)CCC2
REMARK SMILES IDX 13 1 12 2 10 3 11 4 9 5 2 6 3 7 8 8 4 9 7 10 6 11 22 12
REMARK SMILES IDX 20 13 21 14 1 15 5 16 14 17 15 18 16 19 17 20 19 21 18 22
REMARK H PARENT 16 23 18 24 18 25
ROOT
ATOM      1  C   UNL     1      51.595  54.291  21.795  1.00  0.00    +0.012 C 
ENDROOT
BRANCH   1   2
ATOM      2  C   UNL     1      51.247  52.824  21.514  1.00  0.00    +0.100 C 
BRANCH   2   3
ATOM      3  C   UNL     1      51.724  52.391  20.132  1.00  0.00    +0.226 C 
ATOM      4  O   UNL     1      52.672  52.982  19.604  1.00  0.00    -0.275 OA
BRANCH   3   5
ATOM      5  N   UNL     1      51.124  51.282  19.533  1.00  0.00    -0.312 N 
ATOM      6  C   UNL     1      48.322  52.354  17.261  1.00  0.00    -0.049 A 
ATOM      7  C   UNL     1      47.577  51.178  17.194  1.00  0.00    +0.007 A 
ATOM      8  C   UNL     1      49.503  52.370  18.014  1.00  0.00    +0.030 A 
ATOM      9  C   UNL     1      47.997  50.022  17.863  1.00  0.00    -0.046 A 
ATOM     10  C   UNL     1      49.923  51.254  18.750  1.00  0.00    +0.047 A 
ATOM     11  C   UNL     1      49.177  50.055  18.649  1.00  0.00    -0.021 A 
ATOM     12  C   UNL     1      49.650  48.782  19.322  1.00  0.00    +0.040 C 
ATOM     13  C   UNL     1      51.774  49.987  19.737  1.00  0.00    +0.126 C 
ATOM     14  C   UNL     1      50.779  49.002  20.316  1.00  0.00    +0.027 C 
ATOM     15  C   UNL     1      47.912  53.562  16.470  1.00  0.00    +0.044 C 
ATOM     16  C   UNL     1      47.169  48.770  17.730  1.00  0.00    +0.045 C 
ENDBRANCH   3   5
ENDBRANCH   2   3
ENDBRANCH   1   2
BRANCH   1  17
ATOM     17  C   UNL     1      50.592  55.278  21.194  1.00  0.00    +0.022 C 
BRANCH  17  18
ATOM     18  C   UNL     1      50.610  56.647  21.865  1.00  0.00    +0.117 C 
BRANCH  18  19
ATOM     19  N   UNL     1      51.896  56.910  22.481  1.00  0.00    -0.338 N 
ATOM     20  C   UNL     1      52.812  57.672  21.815  1.00  0.00    +0.312 C 
ATOM     21  O   UNL     1      52.701  58.104  20.679  1.00  0.00    -0.249 OA
ATOM     22  N   UNL     1      53.914  57.912  22.572  1.00  0.00    -0.352 N 
ATOM     23  H   UNL     1      51.895  57.081  23.476  1.00  0.00    +0.165 HD
ATOM     24  H   UNL     1      54.231  57.130  23.127  1.00  0.00    +0.161 HD
ATOM     25  H   UNL     1      54.649  58.364  22.042  1.00  0.00    +0.161 HD
ENDBRANCH  18  19
ENDBRANCH  17  18
ENDBRANCH   1  17
TORSDOF 6
ENDMDL
MODEL 2
REMARK VINA RESULT:    -8.402      2.621      6.715
REMARK INTER + INTRA:         -12.012
REMARK INTER:                 -10.724
REMARK INTRA:                  -1.288
REMARK UNBOUND:                -0.663
REMARK SMILES Cc1cc(C)c2c(c1)N(C(=O)CCCCNC(N)=O)CCC2
REMARK SMILES IDX 13 1 12 2 10 3 11 4 9 5 2 6 3 7 8 8 4 9 7 10 6 11 22 12
REMARK SMILES IDX 20 13 21 14 1 15 5 16 14 17 15 18 16 19 17 20 19 21 18 22
REMARK H PARENT 16 23 18 24 18 25
ROOT
ATOM      1  C   UNL     1      51.051  51.757  20.903  1.00  0.00    +0.012 C 
ENDROOT
BRANCH   1   2
ATOM      2  C   UNL     1      52.345  52.379  20.364  1.00  0.00    +0.100 C 
BRANCH   2   3
ATOM      3  C   UNL     1      52.083  53.233  19.128  1.00  0.00    +0.226 C 
ATOM      4  O   UNL     1      52.662  52.965  18.070  1.00  0.00    -0.275 OA
BRANCH   3   5
ATOM      5  N   UNL     1      51.131  54.252  19.208  1.00  0.00    -0.312 N 
ATOM      6  C   UNL     1      52.456  57.153  21.206  1.00  0.00    -0.049 A 
ATOM      7  C   UNL     1      51.266  57.771  21.587  1.00  0.00    +0.007 A 
ATOM      8  C   UNL     1      52.401  56.009  20.401  1.00  0.00    +0.030 A 
ATOM      9  C   UNL     1      50.027  57.265  21.173  1.00  0.00    -0.046 A 
ATOM     10  C   UNL     1      51.181  55.434  20.018  1.00  0.00    +0.047 A 
ATOM     11  C   UNL     1      49.979  56.088  20.383  1.00  0.00    -0.021 A 
ATOM     12  C   UNL     1      48.636  55.583  19.895  1.00  0.00    +0.040 C 
ATOM     13  C   UNL     1      49.928  54.099  18.389  1.00  0.00    +0.126 C 
ATOM     14  C   UNL     1      48.697  54.199  19.268  1.00  0.00    +0.027 C 
ATOM     15  C   UNL     1      53.780  57.752  21.581  1.00  0.00    +0.044 C 
ATOM     16  C   UNL     1      48.775  57.991  21.588  1.00  0.00    +0.045 C 
ENDBRANCH   3   5
ENDBRANCH   2   3
ENDBRANCH   1   2
BRANCH   1  17
ATOM     17  C   UNL     1      51.113  50.233  21.022  1.00  0.00    +0.022 C 
BRANCH  17  18
ATOM     18  C   UNL     1      50.345  49.506  19.924  1.00  0.00    +0.117 C 
BRANCH  18  19
ATOM     19  N   UNL     1      50.937  49.750  18.623  1.00  0.00    -0.338 N 
ATOM     20  C   UNL     1      50.211  50.406  17.671  1.00  0.00    +0.312 C 
ATOM     21  O   UNL     1      49.044  50.751  17.766  1.00  0.00    -0.249 OA
ATOM     22  N   UNL     1      50.945  50.649  16.555  1.00  0.00    -0.352 N 
ATOM     23  H   UNL     1      51.915  50.001  18.610  1.00  0.00    +0.165 HD
ATOM     24  H   UNL     1      51.562  49.899  16.276  1.00  0.00    +0.161 HD
ATOM     25  H   UNL     1      50.380  51.018  15.800  1.00  0.00    +0.161 HD
ENDBRANCH  18  19
ENDBRANCH  17  18
ENDBRANCH   1  17
TORSDOF 6
ENDMDL
MODEL 3
REMARK VINA RESULT:    -8.238      2.812      6.684
REMARK INTER + INTRA:         -11.791
REMARK INTER:                 -11.515
REMARK INTRA:                  -0.276
REMARK UNBOUND:                -0.663
REMARK SMILES Cc1cc(C)c2c(c1)N(C(=O)CCCCNC(N)=O)CCC2
REMARK SMILES IDX 13 1 12 2 10 3 11 4 9 5 2 6 3 7 8 8 4 9 7 10 6 11 22 12
REMARK SMILES IDX 20 13 21 14 1 15 5 16 14 17 15 18 16 19 17 20 19 21 18 22
REMARK H PARENT 16 23 18 24 18 25
ROOT
ATOM      1  C   UNL     1      48.082  51.054  17.319  1.00  0.00    +0.012 C 
ENDROOT
BRANCH   1   2
ATOM      2  C   UNL     1      49.275  52.007  17.182  1.00  0.00    +0.100 C 
BRANCH   2   3
ATOM      3  C   UNL     1      49.016  53.332  17.892  1.00  0.00    +0.226 C 
ATOM      4  O   UNL     1      48.209  54.133  17.407  1.00  0.00    -0.275 OA
BRANCH   3   5
ATOM      5  N   UNL     1      49.643  53.570  19.117  1.00  0.00    -0.312 N 
ATOM      6  C   UNL     1      48.511  56.852  20.572  1.00  0.00    -0.049 A 
ATOM      7  C   UNL     1      49.564  57.127  21.442  1.00  0.00    +0.007 A 
ATOM      8  C   UNL     1      48.534  55.664  19.829  1.00  0.00    +0.030 A 
ATOM      9  C   UNL     1      50.634  56.233  21.583  1.00  0.00    -0.046 A 
ATOM     10  C   UNL     1      49.616  54.775  19.893  1.00  0.00    +0.047 A 
ATOM     11  C   UNL     1      50.665  55.048  20.804  1.00  0.00    -0.021 A 
ATOM     12  C   UNL     1      51.799  54.064  21.007  1.00  0.00    +0.040 C 
ATOM     13  C   UNL     1      50.440  52.477  19.676  1.00  0.00    +0.126 C 
ATOM     14  C   UNL     1      51.847  52.965  19.957  1.00  0.00    +0.027 C 
ATOM     15  C   UNL     1      47.327  57.771  20.493  1.00  0.00    +0.044 C 
ATOM     16  C   UNL     1      51.729  56.567  22.562  1.00  0.00    +0.045 C 
ENDBRANCH   3   5
ENDBRANCH   2   3
ENDBRANCH   1   2
BRANCH   1  17
ATOM     17  C   UNL     1      48.491  49.584  17.443  1.00  0.00    +0.022 C 
BRANCH  17  18
ATOM     18  C   UNL     1      48.922  49.191  18.852  1.00  0.00    +0.117 C 
BRANCH  18  19
ATOM     19  N   UNL     1      50.355  48.987  18.923  1.00  0.00    -0.338 N 
ATOM     20  C   UNL     1      50.961  48.913  20.144  1.00  0.00    +0.312 C 
ATOM     21  O   UNL     1      50.424  49.090  21.226  1.00  0.00    -0.249 OA
ATOM     22  N   UNL     1      52.280  48.611  20.036  1.00  0.00    -0.352 N 
ATOM     23  H   UNL     1      50.756  48.349  18.250  1.00  0.00    +0.165 HD
ATOM     24  H   UNL     1      52.762  49.064  19.273  1.00  0.00    +0.161 HD
ATOM     25  H   UNL     1      52.761  48.682  20.924  1.00  0.00    +0.161 HD
ENDBRANCH  18  19
ENDBRANCH  17  18
ENDBRANCH   1  17
TORSDOF 6
ENDMDL
MODEL 4
REMARK VINA RESULT:    -8.075      1.774      2.964
REMARK INTER + INTRA:         -11.571
REMARK INTER:                 -10.556
REMARK INTRA:                  -1.015
REMARK UNBOUND:                -0.663
REMARK SMILES Cc1cc(C)c2c(c1)N(C(=O)CCCCNC(N)=O)CCC2
REMARK SMILES IDX 13 1 12 2 10 3 11 4 9 5 2 6 3 7 8 8 4 9 7 10 6 11 22 12
REMARK SMILES IDX 20 13 21 14 1 15 5 16 14 17 15 18 16 19 17 20 19 21 18 22
REMARK H PARENT 16 23 18 24 18 25
ROOT
ATOM      1  C   UNL     1      48.436  56.549  19.390  1.00  0.00    +0.012 C 
ENDROOT
BRANCH   1   2
ATOM      2  C   UNL     1      48.788  55.077  19.634  1.00  0.00    +0.100 C 
BRANCH   2   3
ATOM      3  C   UNL     1      50.224  54.770  19.222  1.00  0.00    +0.226 C 
ATOM      4  O   UNL     1      50.875  55.621  18.607  1.00  0.00    -0.275 OA
BRANCH   3   5
ATOM      5  N   UNL     1      50.791  53.558  19.623  1.00  0.00    -0.312 N 
ATOM      6  C   UNL     1      49.353  50.699  17.643  1.00  0.00    -0.049 A 
ATOM      7  C   UNL     1      49.628  49.630  18.494  1.00  0.00    +0.007 A 
ATOM      8  C   UNL     1      49.764  51.986  18.013  1.00  0.00    +0.030 A 
ATOM      9  C   UNL     1      50.307  49.828  19.703  1.00  0.00    -0.046 A 
ATOM     10  C   UNL     1      50.389  52.236  19.242  1.00  0.00    +0.047 A 
ATOM     11  C   UNL     1      50.692  51.138  20.084  1.00  0.00    -0.021 A 
ATOM     12  C   UNL     1      51.475  51.332  21.367  1.00  0.00    +0.040 C 
ATOM     13  C   UNL     1      51.915  53.631  20.557  1.00  0.00    +0.126 C 
ATOM     14  C   UNL     1      51.618  52.788  21.781  1.00  0.00    +0.027 C 
ATOM     15  C   UNL     1      48.704  50.466  16.310  1.00  0.00    +0.044 C 
ATOM     16  C   UNL     1      50.604  48.632  20.568  1.00  0.00    +0.045 C 
ENDBRANCH   3   5
ENDBRANCH   2   3
ENDBRANCH   1   2
BRANCH   1  17
ATOM     17  C   UNL     1      48.054  57.301  20.666  1.00  0.00    +0.022 C 
BRANCH  17  18
ATOM     18  C   UNL     1      49.202  58.109  21.262  1.00  0.00    +0.117 C 
BRANCH  18  19
ATOM     19  N   UNL     1      49.989  57.303  22.175  1.00  0.00    -0.338 N 
ATOM     20  C   UNL     1      51.318  57.116  21.925  1.00  0.00    +0.312 C 
ATOM     21  O   UNL     1      51.925  57.495  20.937  1.00  0.00    -0.249 OA
ATOM     22  N   UNL     1      51.928  56.434  22.928  1.00  0.00    -0.352 N 
ATOM     23  H   UNL     1      49.787  57.407  23.159  1.00  0.00    +0.165 HD
ATOM     24  H   UNL     1      51.388  55.677  23.322  1.00  0.00    +0.161 HD
ATOM     25  H   UNL     1      52.880  56.180  22.692  1.00  0.00    +0.161 HD
ENDBRANCH  18  19
ENDBRANCH  17  18
ENDBRANCH   1  17
TORSDOF 6
ENDMDL
MODEL 5
REMARK VINA RESULT:    -8.006      3.210      7.352
REMARK INTER + INTRA:         -11.477
REMARK INTER:                 -10.930
REMARK INTRA:                  -0.546
REMARK UNBOUND:                -0.663
REMARK SMILES Cc1cc(C)c2c(c1)N(C(=O)CCCCNC(N)=O)CCC2
REMARK SMILES IDX 13 1 12 2 10 3 11 4 9 5 2 6 3 7 8 8 4 9 7 10 6 11 22 12
REMARK SMILES IDX 20 13 21 14 1 15 5 16 14 17 15 18 16 19 17 20 19 21 18 22
REMARK H PARENT 16 23 18 24 18 25
ROOT
ATOM      1  C   UNL     1      47.828  51.901  16.365  1.00  0.00    +0.012 C 
ENDROOT
BRANCH   1   2
ATOM      2  C   UNL     1      47.568  52.820  17.565  1.00  0.00    +0.100 C 
BRANCH   2   3
ATOM      3  C   UNL     1      48.615  53.925  17.659  1.00  0.00    +0.226 C 
ATOM      4  O   UNL     1      48.706  54.755  16.748  1.00  0.00    -0.275 OA
BRANCH   3   5
ATOM      5  N   UNL     1      49.393  54.015  18.815  1.00  0.00    -0.312 N 
ATOM      6  C   UNL     1      48.558  57.140  20.739  1.00  0.00    -0.049 A 
ATOM      7  C   UNL     1      49.718  57.296  21.496  1.00  0.00    +0.007 A 
ATOM      8  C   UNL     1      48.451  56.041  19.877  1.00  0.00    +0.030 A 
ATOM      9  C   UNL     1      50.765  56.371  21.407  1.00  0.00    -0.046 A 
ATOM     10  C   UNL     1      49.502  55.128  19.712  1.00  0.00    +0.047 A 
ATOM     11  C   UNL     1      50.662  55.278  20.510  1.00  0.00    -0.021 A 
ATOM     12  C   UNL     1      51.778  54.254  20.464  1.00  0.00    +0.040 C 
ATOM     13  C   UNL     1      50.215  52.851  19.151  1.00  0.00    +0.126 C 
ATOM     14  C   UNL     1      51.661  53.276  19.306  1.00  0.00    +0.027 C 
ATOM     15  C   UNL     1      47.405  58.086  20.906  1.00  0.00    +0.044 C 
ATOM     16  C   UNL     1      51.982  56.573  22.273  1.00  0.00    +0.045 C 
ENDBRANCH   3   5
ENDBRANCH   2   3
ENDBRANCH   1   2
BRANCH   1  17
ATOM     17  C   UNL     1      48.100  50.448  16.762  1.00  0.00    +0.022 C 
BRANCH  17  18
ATOM     18  C   UNL     1      48.730  49.622  15.646  1.00  0.00    +0.117 C 
BRANCH  18  19
ATOM     19  N   UNL     1      50.177  49.685  15.702  1.00  0.00    -0.338 N 
ATOM     20  C   UNL     1      50.890  49.729  14.539  1.00  0.00    +0.312 C 
ATOM     21  O   UNL     1      50.434  49.632  13.411  1.00  0.00    -0.249 OA
ATOM     22  N   UNL     1      52.218  49.896  14.766  1.00  0.00    -0.352 N 
ATOM     23  H   UNL     1      50.578  50.263  16.427  1.00  0.00    +0.165 HD
ATOM     24  H   UNL     1      52.586  49.379  15.553  1.00  0.00    +0.161 HD
ATOM     25  H   UNL     1      52.765  49.799  13.920  1.00  0.00    +0.161 HD
ENDBRANCH  18  19
ENDBRANCH  17  18
ENDBRANCH   1  17
TORSDOF 6
ENDMDL
