MODEL 1
REMARK VINA RESULT:    -6.249      0.000      0.000
REMARK INTER + INTRA:          -8.452
REMARK INTER:                  -8.076
REMARK INTRA:                  -0.376
REMARK UNBOUND:                -0.376
REMARK SMILES CC(C)(C)SCCNc1ncnc2[nH]cnc12
REMARK SMILES IDX 6 1 5 2 2 3 1 4 3 5 4 6 7 7 8 8 9 10 17 11 10 12 13 13 16 14
REMARK SMILES IDX 11 15 14 16 12 17 15 18
REMARK H PARENT 8 9 14 19
ROOT
ATOM      1  C   UNL     1      49.051  49.270  16.258  1.00  0.00    +0.091 C 
ENDROOT
BRANCH   1   2
ATOM      2  S   UNL     1      47.266  49.428  15.893  1.00  0.00    -0.154 SA
BRANCH   2   3
ATOM      3  C   UNL     1      46.497  48.273  17.120  1.00  0.00    +0.008 C 
ATOM      4  C   UNL     1      44.982  48.478  17.230  1.00  0.00    +0.022 C 
ATOM      5  C   UNL     1      47.143  48.599  18.477  1.00  0.00    +0.022 C 
ATOM      6  C   UNL     1      46.822  46.821  16.749  1.00  0.00    +0.022 C 
ENDBRANCH   2   3
ENDBRANCH   1   2
BRANCH   1   7
ATOM      7  C   UNL     1      49.701  50.630  16.535  1.00  0.00    +0.125 C 
BRANCH   7   8
ATOM      8  N   UNL     1      51.094  50.434  16.926  1.00  0.00    -0.367 N 
ATOM      9  H   UNL     1      51.430  49.472  16.872  1.00  0.00    +0.162 HD
BRANCH   8  10
ATOM     10  C   UNL     1      51.425  50.951  18.187  1.00  0.00    +0.157 A 
ATOM     11  C   UNL     1      51.115  50.252  19.370  1.00  0.00    +0.150 A 
ATOM     12  N   UNL     1      52.069  52.142  18.311  1.00  0.00    -0.217 NA
ATOM     13  C   UNL     1      51.501  50.837  20.562  1.00  0.00    +0.162 A 
ATOM     14  N   UNL     1      50.465  49.054  19.603  1.00  0.00    -0.231 NA
ATOM     15  C   UNL     1      52.386  52.587  19.547  1.00  0.00    +0.226 A 
ATOM     16  N   UNL     1      51.089  49.972  21.533  1.00  0.00    -0.329 N 
ATOM     17  N   UNL     1      52.141  52.002  20.738  1.00  0.00    -0.217 NA
ATOM     18  C   UNL     1      50.473  48.919  20.913  1.00  0.00    +0.199 A 
ATOM     19  H   UNL     1      51.220  50.103  22.524  1.00  0.00    +0.169 HD
ENDBRANCH   8  10
ENDBRANCH   7   8
ENDBRANCH   1   7
TORSDOF 5
ENDMDL
MODEL 2
REMARK VINA RESULT:    -6.045      4.135      6.421
REMARK INTER + INTRA:          -8.188
REMARK INTER:                  -7.871
REMARK INTRA:                  -0.318
REMARK UNBOUND:                -0.376
REMARK SMILES CC(C)(C)SCCNc1ncnc2[nH]cnc12
REMARK SMILES IDX 6 1 5 2 2 3 1 4 3 5 4 6 7 7 8 8 9 10 17 11 10 12 13 13 16 14
REMARK SMILES IDX 11 15 14 16 12 17 15 18
REMARK H PARENT 8 9 14 19
ROOT
ATOM      1  C   UNL     1      52.134  52.650  18.464  1.00  0.00    +0.091 C 
ENDROOT
BRANCH   1   2
ATOM      2  S   UNL     1      50.596  51.732  18.834  1.00  0.00    -0.154 SA
BRANCH   2   3
ATOM      3  C   UNL     1      51.195  50.359  19.922  1.00  0.00    +0.008 C 
ATOM      4  C   UNL     1      50.294  49.123  19.836  1.00  0.00    +0.022 C 
ATOM      5  C   UNL     1      51.155  50.904  21.360  1.00  0.00    +0.022 C 
ATOM      6  C   UNL     1      52.643  50.000  19.566  1.00  0.00    +0.022 C 
ENDBRANCH   2   3
ENDBRANCH   1   2
BRANCH   1   7
ATOM      7  C   UNL     1      52.417  53.738  19.507  1.00  0.00    +0.125 C 
BRANCH   7   8
ATOM      8  N   UNL     1      51.991  55.034  18.988  1.00  0.00    -0.367 N 
ATOM      9  H   UNL     1      52.692  55.538  18.445  1.00  0.00    +0.162 HD
BRANCH   8  10
ATOM     10  C   UNL     1      51.464  55.905  19.952  1.00  0.00    +0.157 A 
ATOM     11  C   UNL     1      52.296  56.774  20.687  1.00  0.00    +0.150 A 
ATOM     12  N   UNL     1      50.129  55.951  20.204  1.00  0.00    -0.217 NA
ATOM     13  C   UNL     1      51.678  57.607  21.601  1.00  0.00    +0.162 A 
ATOM     14  N   UNL     1      53.664  56.969  20.696  1.00  0.00    -0.231 NA
ATOM     15  C   UNL     1      49.669  56.824  21.128  1.00  0.00    +0.226 A 
ATOM     16  N   UNL     1      52.689  58.329  22.164  1.00  0.00    -0.329 N 
ATOM     17  N   UNL     1      50.371  57.695  21.882  1.00  0.00    -0.217 NA
ATOM     18  C   UNL     1      53.861  57.913  21.593  1.00  0.00    +0.199 A 
ATOM     19  H   UNL     1      52.575  59.036  22.874  1.00  0.00    +0.169 HD
ENDBRANCH   8  10
ENDBRANCH   7   8
ENDBRANCH   1   7
TORSDOF 5
ENDMDL
MODEL 3
REMARK VINA RESULT:    -5.914      3.278      6.306
REMARK INTER + INTRA:          -8.019
REMARK INTER:                  -7.663
REMARK INTRA:                  -0.356
REMARK UNBOUND:                -0.376
REMARK SMILES CC(C)(C)SCCNc1ncnc2[nH]cnc12
REMARK SMILES IDX 6 1 5 2 2 3 1 4 3 5 4 6 7 7 8 8 9 10 17 11 10 12 13 13 16 14
REMARK SMILES IDX 11 15 14 16 12 17 15 18
REMARK H PARENT 8 9 14 19
ROOT
ATOM      1  C   UNL     1      51.493  54.129  19.335  1.00  0.00    +0.091 C 
ENDROOT
BRANCH   1   2
ATOM      2  S   UNL     1      51.766  55.928  19.511  1.00  0.00    -0.154 SA
BRANCH   2   3
ATOM      3  C   UNL     1      51.499  56.205  21.322  1.00  0.00    +0.008 C 
ATOM      4  C   UNL     1      50.178  56.930  21.603  1.00  0.00    +0.022 C 
ATOM      5  C   UNL     1      52.663  57.090  21.796  1.00  0.00    +0.022 C 
ATOM      6  C   UNL     1      51.553  54.868  22.071  1.00  0.00    +0.022 C 
ENDBRANCH   2   3
ENDBRANCH   1   2
BRANCH   1   7
ATOM      7  C   UNL     1      52.762  53.399  18.880  1.00  0.00    +0.125 C 
BRANCH   7   8
ATOM      8  N   UNL     1      52.403  52.323  17.961  1.00  0.00    -0.367 N 
ATOM      9  H   UNL     1      51.825  52.602  17.168  1.00  0.00    +0.162 HD
BRANCH   8  10
ATOM     10  C   UNL     1      51.813  51.206  18.570  1.00  0.00    +0.157 A 
ATOM     11  C   UNL     1      50.493  50.819  18.267  1.00  0.00    +0.150 A 
ATOM     12  N   UNL     1      52.500  50.450  19.467  1.00  0.00    -0.217 NA
ATOM     13  C   UNL     1      50.009  49.692  18.907  1.00  0.00    +0.162 A 
ATOM     14  N   UNL     1      49.529  51.359  17.437  1.00  0.00    -0.231 NA
ATOM     15  C   UNL     1      51.895  49.371  20.010  1.00  0.00    +0.226 A 
ATOM     16  N   UNL     1      48.735  49.541  18.446  1.00  0.00    -0.329 N 
ATOM     17  N   UNL     1      50.645  48.911  19.792  1.00  0.00    -0.217 NA
ATOM     18  C   UNL     1      48.489  50.562  17.568  1.00  0.00    +0.199 A 
ATOM     19  H   UNL     1      48.100  48.804  18.716  1.00  0.00    +0.169 HD
ENDBRANCH   8  10
ENDBRANCH   7   8
ENDBRANCH   1   7
TORSDOF 5
ENDMDL
MODEL 4
REMARK VINA RESULT:    -5.893      4.042      5.867
REMARK INTER + INTRA:          -7.992
REMARK INTER:                  -7.675
REMARK INTRA:                  -0.317
REMARK UNBOUND:                -0.376
REMARK SMILES CC(C)(C)SCCNc1ncnc2[nH]cnc12
REMARK SMILES IDX 6 1 5 2 2 3 1 4 3 5 4 6 7 7 8 8 9 10 17 11 10 12 13 13 16 14
REMARK SMILES IDX 11 15 14 16 12 17 15 18
REMARK H PARENT 8 9 14 19
ROOT
ATOM      1  C   UNL     1      51.670  52.383  18.637  1.00  0.00    +0.091 C 
ENDROOT
BRANCH   1   2
ATOM      2  S   UNL     1      49.870  52.526  18.352  1.00  0.00    -0.154 SA
BRANCH   2   3
ATOM      3  C   UNL     1      49.405  50.815  17.819  1.00  0.00    +0.008 C 
ATOM      4  C   UNL     1      47.898  50.677  17.580  1.00  0.00    +0.022 C 
ATOM      5  C   UNL     1      49.813  49.883  18.973  1.00  0.00    +0.022 C 
ATOM      6  C   UNL     1      50.192  50.424  16.562  1.00  0.00    +0.022 C 
ENDBRANCH   2   3
ENDBRANCH   1   2
BRANCH   1   7
ATOM      7  C   UNL     1      52.165  53.383  19.689  1.00  0.00    +0.125 C 
BRANCH   7   8
ATOM      8  N   UNL     1      52.046  54.740  19.165  1.00  0.00    -0.367 N 
ATOM      9  H   UNL     1      52.911  55.148  18.810  1.00  0.00    +0.162 HD
BRANCH   8  10
ATOM     10  C   UNL     1      51.452  55.656  20.046  1.00  0.00    +0.157 A 
ATOM     11  C   UNL     1      52.222  56.607  20.743  1.00  0.00    +0.150 A 
ATOM     12  N   UNL     1      50.108  55.665  20.248  1.00  0.00    -0.217 NA
ATOM     13  C   UNL     1      51.540  57.478  21.573  1.00  0.00    +0.162 A 
ATOM     14  N   UNL     1      53.581  56.858  20.785  1.00  0.00    -0.231 NA
ATOM     15  C   UNL     1      49.581  56.582  21.091  1.00  0.00    +0.226 A 
ATOM     16  N   UNL     1      52.502  58.278  22.116  1.00  0.00    -0.329 N 
ATOM     17  N   UNL     1      50.221  57.533  21.803  1.00  0.00    -0.217 NA
ATOM     18  C   UNL     1      53.709  57.871  21.617  1.00  0.00    +0.199 A 
ATOM     19  H   UNL     1      52.335  59.029  22.769  1.00  0.00    +0.169 HD
ENDBRANCH   8  10
ENDBRANCH   7   8
ENDBRANCH   1   7
TORSDOF 5
ENDMDL
MODEL 5
REMARK VINA RESULT:    -5.771      1.603      2.209
REMARK INTER + INTRA:          -7.834
REMARK INTER:                  -7.554
REMARK INTRA:                  -0.280
REMARK UNBOUND:                -0.376
REMARK SMILES CC(C)(C)SCCNc1ncnc2[nH]cnc12
REMARK SMILES IDX 6 1 5 2 2 3 1 4 3 5 4 6 7 7 8 8 9 10 17 11 10 12 13 13 16 14
REMARK SMILES IDX 11 15 14 16 12 17 15 18
REMARK H PARENT 8 9 14 19
ROOT
ATOM      1  C   UNL     1      48.156  50.368  17.031  1.00  0.00    +0.091 C 
ENDROOT
BRANCH   1   2
ATOM      2  S   UNL     1      48.246  48.727  16.231  1.00  0.00    -0.154 SA
BRANCH   2   3
ATOM      3  C   UNL     1      46.483  48.163  16.261  1.00  0.00    +0.008 C 
ATOM      4  C   UNL     1      45.836  48.225  14.873  1.00  0.00    +0.022 C 
ATOM      5  C   UNL     1      45.741  49.130  17.199  1.00  0.00    +0.022 C 
ATOM      6  C   UNL     1      46.395  46.744  16.837  1.00  0.00    +0.022 C 
ENDBRANCH   2   3
ENDBRANCH   1   2
BRANCH   1   7
ATOM      7  C   UNL     1      49.478  51.137  16.912  1.00  0.00    +0.125 C 
BRANCH   7   8
ATOM      8  N   UNL     1      49.686  51.937  18.115  1.00  0.00    -0.367 N 
ATOM      9  H   UNL     1      49.806  52.938  17.957  1.00  0.00    +0.162 HD
BRANCH   8  10
ATOM     10  C   UNL     1      50.726  51.489  18.942  1.00  0.00    +0.157 A 
ATOM     11  C   UNL     1      50.939  52.046  20.219  1.00  0.00    +0.150 A 
ATOM     12  N   UNL     1      51.559  50.491  18.544  1.00  0.00    -0.217 NA
ATOM     13  C   UNL     1      51.979  51.522  20.964  1.00  0.00    +0.162 A 
ATOM     14  N   UNL     1      50.307  53.062  20.911  1.00  0.00    -0.231 NA
ATOM     15  C   UNL     1      52.533  50.079  19.387  1.00  0.00    +0.226 A 
ATOM     16  N   UNL     1      51.968  52.223  22.133  1.00  0.00    -0.329 N 
ATOM     17  N   UNL     1      52.823  50.538  20.622  1.00  0.00    -0.217 NA
ATOM     18  C   UNL     1      50.950  53.136  22.058  1.00  0.00    +0.199 A 
ATOM     19  H   UNL     1      52.604  52.084  22.904  1.00  0.00    +0.169 HD
ENDBRANCH   8  10
ENDBRANCH   7   8
ENDBRANCH   1   7
TORSDOF 5
ENDMDL
