MODEL 1
REMARK VINA RESULT:    -8.545      0.000      0.000
REMARK INTER + INTRA:         -12.039
REMARK INTER:                 -11.543
REMARK INTRA:                  -0.496
REMARK UNBOUND:                -0.496
REMARK SMILES CCNC(=O)NC(=O)CN1CCC(NC(=O)CC2CCCC2)CC1
REMARK SMILES IDX 10 1 11 2 12 3 13 4 23 5 24 6 9 7 7 8 3 9 4 10 5 11 6 12
REMARK SMILES IDX 8 13 2 16 1 17 14 18 15 19 16 20 17 22 18 23 19 24 22 25
REMARK SMILES IDX 20 26 21 27
REMARK H PARENT 3 14 6 15 14 21
ROOT
ATOM      1  N   UNL     1      50.653  51.461  19.365  1.00  0.00    -0.294 NA
ATOM      2  C   UNL     1      51.603  52.250  18.579  1.00  0.00    +0.087 C 
ATOM      3  C   UNL     1      51.637  53.692  19.075  1.00  0.00    +0.040 C 
ATOM      4  C   UNL     1      52.105  53.782  20.533  1.00  0.00    +0.084 C 
ATOM      5  C   UNL     1      51.977  52.446  21.268  1.00  0.00    +0.040 C 
ATOM      6  C   UNL     1      50.752  51.653  20.817  1.00  0.00    +0.087 C 
ENDROOT
BRANCH   1   7
ATOM      7  C   UNL     1      50.588  50.038  18.992  1.00  0.00    +0.185 C 
BRANCH   7   8
ATOM      8  C   UNL     1      49.481  49.765  17.966  1.00  0.00    +0.242 C 
ATOM      9  N   UNL     1      46.562  47.819  18.634  1.00  0.00    -0.338 N 
ATOM     10  C   UNL     1      47.241  48.939  18.196  1.00  0.00    +0.321 C 
ATOM     11  O   UNL     1      46.681  49.941  17.775  1.00  0.00    -0.248 OA
ATOM     12  N   UNL     1      48.595  48.783  18.365  1.00  0.00    -0.277 N 
ATOM     13  O   UNL     1      49.473  50.293  16.857  1.00  0.00    -0.273 OA
ATOM     14  H   UNL     1      47.059  46.946  18.515  1.00  0.00    +0.165 HD
ATOM     15  H   UNL     1      48.814  48.290  19.213  1.00  0.00    +0.174 HD
BRANCH   9  16
ATOM     16  C   UNL     1      45.118  47.746  18.514  1.00  0.00    +0.114 C 
ATOM     17  C   UNL     1      44.484  47.032  19.694  1.00  0.00    +0.027 C 
ENDBRANCH   9  16
ENDBRANCH   7   8
ENDBRANCH   1   7
BRANCH   4  18
ATOM     18  N   UNL     1      51.389  54.843  21.236  1.00  0.00    -0.353 N 
ATOM     19  C   UNL     1      51.911  56.122  21.312  1.00  0.00    +0.220 C 
ATOM     20  O   UNL     1      53.040  56.413  20.932  1.00  0.00    -0.275 OA
ATOM     21  H   UNL     1      50.387  54.745  21.341  1.00  0.00    +0.163 HD
BRANCH  19  22
ATOM     22  C   UNL     1      50.931  57.117  21.909  1.00  0.00    +0.103 C 
BRANCH  22  23
ATOM     23  C   UNL     1      49.516  56.974  21.349  1.00  0.00    -0.002 C 
ATOM     24  C   UNL     1      49.462  56.939  19.821  1.00  0.00    +0.004 C 
ATOM     25  C   UNL     1      48.636  58.180  21.673  1.00  0.00    +0.004 C 
ATOM     26  C   UNL     1      48.006  57.255  19.500  1.00  0.00    +0.000 C 
ATOM     27  C   UNL     1      47.495  58.107  20.662  1.00  0.00    +0.000 C 
ENDBRANCH  22  23
ENDBRANCH  19  22
ENDBRANCH   4  18
TORSDOF 6
ENDMDL
MODEL 2
REMARK VINA RESULT:    -8.055      1.735      2.030
REMARK INTER + INTRA:         -11.376
REMARK INTER:                 -10.989
REMARK INTRA:                  -0.388
REMARK UNBOUND:                -0.496
REMARK SMILES CCNC(=O)NC(=O)CN1CCC(NC(=O)CC2CCCC2)CC1
REMARK SMILES IDX 10 1 11 2 12 3 13 4 23 5 24 6 9 7 7 8 3 9 4 10 5 11 6 12
REMARK SMILES IDX 8 13 2 16 1 17 14 18 15 19 16 20 17 22 18 23 19 24 22 25
REMARK SMILES IDX 20 26 21 27
REMARK H PARENT 3 14 6 15 14 21
ROOT
ATOM      1  N   UNL     1      50.589  51.129  19.277  1.00  0.00    -0.294 NA
ATOM      2  C   UNL     1      51.393  52.006  18.425  1.00  0.00    +0.087 C 
ATOM      3  C   UNL     1      51.402  53.426  18.980  1.00  0.00    +0.040 C 
ATOM      4  C   UNL     1      52.034  53.487  20.377  1.00  0.00    +0.084 C 
ATOM      5  C   UNL     1      52.069  52.117  21.059  1.00  0.00    +0.040 C 
ATOM      6  C   UNL     1      50.847  51.268  20.715  1.00  0.00    +0.087 C 
ENDROOT
BRANCH   1   7
ATOM      7  C   UNL     1      50.561  49.721  18.847  1.00  0.00    +0.185 C 
BRANCH   7   8
ATOM      8  C   UNL     1      49.130  49.218  18.620  1.00  0.00    +0.242 C 
ATOM      9  N   UNL     1      47.555  49.026  15.421  1.00  0.00    -0.338 N 
ATOM     10  C   UNL     1      47.961  48.528  16.643  1.00  0.00    +0.321 C 
ATOM     11  O   UNL     1      47.767  47.372  16.995  1.00  0.00    -0.248 OA
ATOM     12  N   UNL     1      48.653  49.480  17.350  1.00  0.00    -0.277 N 
ATOM     13  O   UNL     1      48.453  48.741  19.528  1.00  0.00    -0.273 OA
ATOM     14  H   UNL     1      47.341  50.015  15.414  1.00  0.00    +0.165 HD
ATOM     15  H   UNL     1      49.233  50.044  16.754  1.00  0.00    +0.174 HD
BRANCH   9  16
ATOM     16  C   UNL     1      46.769  48.202  14.520  1.00  0.00    +0.114 C 
ATOM     17  C   UNL     1      45.299  48.190  14.897  1.00  0.00    +0.027 C 
ENDBRANCH   9  16
ENDBRANCH   7   8
ENDBRANCH   1   7
BRANCH   4  18
ATOM     18  N   UNL     1      51.346  54.473  21.207  1.00  0.00    -0.353 N 
ATOM     19  C   UNL     1      51.831  55.764  21.325  1.00  0.00    +0.220 C 
ATOM     20  O   UNL     1      52.912  56.121  20.872  1.00  0.00    -0.275 OA
ATOM     21  H   UNL     1      50.361  54.329  21.389  1.00  0.00    +0.163 HD
BRANCH  19  22
ATOM     22  C   UNL     1      50.873  56.679  22.067  1.00  0.00    +0.103 C 
BRANCH  22  23
ATOM     23  C   UNL     1      49.830  57.323  21.154  1.00  0.00    -0.002 C 
ATOM     24  C   UNL     1      48.874  58.265  21.886  1.00  0.00    +0.004 C 
ATOM     25  C   UNL     1      48.871  56.297  20.551  1.00  0.00    +0.004 C 
ATOM     26  C   UNL     1      47.699  58.409  20.927  1.00  0.00    +0.000 C 
ATOM     27  C   UNL     1      47.660  57.116  20.113  1.00  0.00    +0.000 C 
ENDBRANCH  22  23
ENDBRANCH  19  22
ENDBRANCH   4  18
TORSDOF 6
ENDMDL
MODEL 3
REMARK VINA RESULT:    -7.553      2.093      2.883
REMARK INTER + INTRA:         -10.698
REMARK INTER:                 -10.542
REMARK INTRA:                  -0.156
REMARK UNBOUND:                -0.496
REMARK SMILES CCNC(=O)NC(=O)CN1CCC(NC(=O)CC2CCCC2)CC1
REMARK SMILES IDX 10 1 11 2 12 3 13 4 23 5 24 6 9 7 7 8 3 9 4 10 5 11 6 12
REMARK SMILES IDX 8 13 2 16 1 17 14 18 15 19 16 20 17 22 18 23 19 24 22 25
REMARK SMILES IDX 20 26 21 27
REMARK H PARENT 3 14 6 15 14 21
ROOT
ATOM      1  N   UNL     1      49.521  50.866  15.988  1.00  0.00    -0.294 NA
ATOM      2  C   UNL     1      50.253  50.370  17.155  1.00  0.00    +0.087 C 
ATOM      3  C   UNL     1      50.785  51.534  17.984  1.00  0.00    +0.040 C 
ATOM      4  C   UNL     1      49.650  52.412  18.529  1.00  0.00    +0.084 C 
ATOM      5  C   UNL     1      48.342  52.212  17.761  1.00  0.00    +0.040 C 
ATOM      6  C   UNL     1      48.577  51.953  16.274  1.00  0.00    +0.087 C 
ENDROOT
BRANCH   1   7
ATOM      7  C   UNL     1      48.925  49.812  15.151  1.00  0.00    +0.185 C 
BRANCH   7   8
ATOM      8  C   UNL     1      48.500  48.593  15.979  1.00  0.00    +0.242 C 
ATOM      9  N   UNL     1      45.578  48.479  18.028  1.00  0.00    -0.338 N 
ATOM     10  C   UNL     1      46.433  48.014  17.048  1.00  0.00    +0.321 C 
ATOM     11  O   UNL     1      46.215  47.006  16.392  1.00  0.00    -0.248 OA
ATOM     12  N   UNL     1      47.494  48.870  16.885  1.00  0.00    -0.277 N 
ATOM     13  O   UNL     1      49.091  47.518  15.909  1.00  0.00    -0.273 OA
ATOM     14  H   UNL     1      46.027  48.987  18.779  1.00  0.00    +0.165 HD
ATOM     15  H   UNL     1      47.221  49.832  16.980  1.00  0.00    +0.174 HD
BRANCH   9  16
ATOM     16  C   UNL     1      44.404  47.710  18.399  1.00  0.00    +0.114 C 
ATOM     17  C   UNL     1      44.606  46.953  19.699  1.00  0.00    +0.027 C 
ENDBRANCH   9  16
ENDBRANCH   7   8
ENDBRANCH   1   7
BRANCH   4  18
ATOM     18  N   UNL     1      50.049  53.817  18.536  1.00  0.00    -0.353 N 
ATOM     19  C   UNL     1      50.306  54.475  19.726  1.00  0.00    +0.220 C 
ATOM     20  O   UNL     1      50.087  53.986  20.828  1.00  0.00    -0.275 OA
ATOM     21  H   UNL     1      50.479  54.188  17.699  1.00  0.00    +0.163 HD
BRANCH  19  22
ATOM     22  C   UNL     1      50.891  55.859  19.510  1.00  0.00    +0.103 C 
BRANCH  22  23
ATOM     23  C   UNL     1      49.956  56.983  19.955  1.00  0.00    -0.002 C 
ATOM     24  C   UNL     1      49.995  57.253  21.459  1.00  0.00    +0.004 C 
ATOM     25  C   UNL     1      48.484  56.639  19.730  1.00  0.00    +0.004 C 
ATOM     26  C   UNL     1      48.714  58.035  21.723  1.00  0.00    +0.000 C 
ATOM     27  C   UNL     1      47.722  57.592  20.648  1.00  0.00    +0.000 C 
ENDBRANCH  22  23
ENDBRANCH  19  22
ENDBRANCH   4  18
TORSDOF 6
ENDMDL
MODEL 4
REMARK VINA RESULT:    -7.183      2.612      7.552
REMARK INTER + INTRA:         -10.199
REMARK INTER:                  -9.667
REMARK INTRA:                  -0.532
REMARK UNBOUND:                -0.496
REMARK SMILES CCNC(=O)NC(=O)CN1CCC(NC(=O)CC2CCCC2)CC1
REMARK SMILES IDX 10 1 11 2 12 3 13 4 23 5 24 6 9 7 7 8 3 9 4 10 5 11 6 12
REMARK SMILES IDX 8 13 2 16 1 17 14 18 15 19 16 20 17 22 18 23 19 24 22 25
REMARK SMILES IDX 20 26 21 27
REMARK H PARENT 3 14 6 15 14 21
ROOT
ATOM      1  N   UNL     1      50.766  55.544  21.412  1.00  0.00    -0.294 NA
ATOM      2  C   UNL     1      51.750  54.806  22.205  1.00  0.00    +0.087 C 
ATOM      3  C   UNL     1      51.506  53.305  22.094  1.00  0.00    +0.040 C 
ATOM      4  C   UNL     1      51.657  52.808  20.650  1.00  0.00    +0.084 C 
ATOM      5  C   UNL     1      51.548  53.945  19.631  1.00  0.00    +0.040 C 
ATOM      6  C   UNL     1      50.546  55.014  20.062  1.00  0.00    +0.087 C 
ENDROOT
BRANCH   1   7
ATOM      7  C   UNL     1      50.952  57.005  21.418  1.00  0.00    +0.185 C 
BRANCH   7   8
ATOM      8  C   UNL     1      49.623  57.753  21.252  1.00  0.00    +0.242 C 
ATOM      9  N   UNL     1      48.147  58.544  18.099  1.00  0.00    -0.338 N 
ATOM     10  C   UNL     1      48.152  58.024  19.378  1.00  0.00    +0.321 C 
ATOM     11  O   UNL     1      47.187  57.462  19.877  1.00  0.00    -0.248 OA
ATOM     12  N   UNL     1      49.388  58.171  19.956  1.00  0.00    -0.277 N 
ATOM     13  O   UNL     1      48.913  58.043  22.211  1.00  0.00    -0.273 OA
ATOM     14  H   UNL     1      48.755  59.341  17.960  1.00  0.00    +0.165 HD
ATOM     15  H   UNL     1      50.132  58.038  19.294  1.00  0.00    +0.174 HD
BRANCH   9  16
ATOM     16  C   UNL     1      46.928  58.535  17.310  1.00  0.00    +0.114 C 
ATOM     17  C   UNL     1      47.040  57.623  16.101  1.00  0.00    +0.027 C 
ENDBRANCH   9  16
ENDBRANCH   7   8
ENDBRANCH   1   7
BRANCH   4  18
ATOM     18  N   UNL     1      50.689  51.751  20.369  1.00  0.00    -0.353 N 
ATOM     19  C   UNL     1      51.022  50.683  19.555  1.00  0.00    +0.220 C 
ATOM     20  O   UNL     1      52.067  50.620  18.919  1.00  0.00    -0.275 OA
ATOM     21  H   UNL     1      49.938  51.613  21.032  1.00  0.00    +0.163 HD
BRANCH  19  22
ATOM     22  C   UNL     1      49.954  49.603  19.547  1.00  0.00    +0.103 C 
BRANCH  22  23
ATOM     23  C   UNL     1      49.079  49.633  18.295  1.00  0.00    -0.002 C 
ATOM     24  C   UNL     1      48.739  51.046  17.818  1.00  0.00    +0.004 C 
ATOM     25  C   UNL     1      47.694  49.035  18.536  1.00  0.00    +0.004 C 
ATOM     26  C   UNL     1      47.542  50.842  16.898  1.00  0.00    +0.000 C 
ATOM     27  C   UNL     1      46.835  49.584  17.400  1.00  0.00    +0.000 C 
ENDBRANCH  22  23
ENDBRANCH  19  22
ENDBRANCH   4  18
TORSDOF 6
ENDMDL
MODEL 5
REMARK VINA RESULT:    -7.182      2.412      8.748
REMARK INTER + INTRA:         -10.197
REMARK INTER:                  -9.904
REMARK INTRA:                  -0.293
REMARK UNBOUND:                -0.496
REMARK SMILES CCNC(=O)NC(=O)CN1CCC(NC(=O)CC2CCCC2)CC1
REMARK SMILES IDX 10 1 11 2 12 3 13 4 23 5 24 6 9 7 7 8 3 9 4 10 5 11 6 12
REMARK SMILES IDX 8 13 2 16 1 17 14 18 15 19 16 20 17 22 18 23 19 24 22 25
REMARK SMILES IDX 20 26 21 27
REMARK H PARENT 3 14 6 15 14 21
ROOT
ATOM      1  N   UNL     1      50.379  51.774  19.871  1.00  0.00    -0.294 NA
ATOM      2  C   UNL     1      50.423  50.328  20.091  1.00  0.00    +0.087 C 
ATOM      3  C   UNL     1      49.539  49.607  19.079  1.00  0.00    +0.040 C 
ATOM      4  C   UNL     1      50.016  49.838  17.639  1.00  0.00    +0.084 C 
ATOM      5  C   UNL     1      50.929  51.060  17.519  1.00  0.00    +0.040 C 
ATOM      6  C   UNL     1      50.519  52.184  18.469  1.00  0.00    +0.087 C 
ENDROOT
BRANCH   1   7
ATOM      7  C   UNL     1      51.244  52.554  20.772  1.00  0.00    +0.185 C 
BRANCH   7   8
ATOM      8  C   UNL     1      50.718  53.980  20.980  1.00  0.00    +0.242 C 
ATOM      9  N   UNL     1      52.738  56.729  22.035  1.00  0.00    -0.338 N 
ATOM     10  C   UNL     1      51.835  56.090  21.209  1.00  0.00    +0.321 C 
ATOM     11  O   UNL     1      51.360  56.607  20.207  1.00  0.00    -0.248 OA
ATOM     12  N   UNL     1      51.613  54.803  21.634  1.00  0.00    -0.277 N 
ATOM     13  O   UNL     1      49.568  54.301  20.691  1.00  0.00    -0.273 OA
ATOM     14  H   UNL     1      52.705  56.442  23.005  1.00  0.00    +0.165 HD
ATOM     15  H   UNL     1      52.451  54.374  21.988  1.00  0.00    +0.174 HD
BRANCH   9  16
ATOM     16  C   UNL     1      53.092  58.116  21.797  1.00  0.00    +0.114 C 
ATOM     17  C   UNL     1      54.251  58.249  20.824  1.00  0.00    +0.027 C 
ENDBRANCH   9  16
ENDBRANCH   7   8
ENDBRANCH   1   7
BRANCH   4  18
ATOM     18  N   UNL     1      48.876  49.938  16.732  1.00  0.00    -0.353 N 
ATOM     19  C   UNL     1      48.675  48.996  15.738  1.00  0.00    +0.220 C 
ATOM     20  O   UNL     1      49.488  48.121  15.465  1.00  0.00    -0.275 OA
ATOM     21  H   UNL     1      48.068  50.458  17.048  1.00  0.00    +0.163 HD
BRANCH  19  22
ATOM     22  C   UNL     1      47.340  49.168  15.037  1.00  0.00    +0.103 C 
BRANCH  22  23
ATOM     23  C   UNL     1      46.170  48.570  15.817  1.00  0.00    -0.002 C 
ATOM     24  C   UNL     1      45.732  49.419  17.011  1.00  0.00    +0.004 C 
ATOM     25  C   UNL     1      46.532  47.243  16.484  1.00  0.00    +0.004 C 
ATOM     26  C   UNL     1      44.922  48.454  17.867  1.00  0.00    +0.000 C 
ATOM     27  C   UNL     1      45.480  47.062  17.575  1.00  0.00    +0.000 C 
ENDBRANCH  22  23
ENDBRANCH  19  22
ENDBRANCH   4  18
TORSDOF 6
ENDMDL
