MODEL 1
REMARK VINA RESULT:    -7.311      0.000      0.000
REMARK INTER + INTRA:         -11.066
REMARK INTER:                 -10.302
REMARK INTRA:                  -0.764
REMARK UNBOUND:                -0.764
REMARK SMILES CC[NH+](C)CCNC(=O)N1CCC[C@@H](C(=O)Nc2nccs2)C1
REMARK SMILES IDX 6 1 5 2 3 3 4 4 2 6 1 7 7 8 8 9 9 10 10 12 11 13 23 14 12 15
REMARK SMILES IDX 14 16 13 17 15 18 16 19 17 20 18 22 19 23 22 24 20 25 21 26
REMARK H PARENT 3 5 7 11 17 21
ROOT
ATOM      1  C   UNL     1      49.677  50.409  15.420  1.00  0.00    +0.179 C 
ENDROOT
BRANCH   1   2
ATOM      2  C   UNL     1      48.769  49.161  15.341  1.00  0.00    +0.283 C 
BRANCH   2   3
ATOM      3  N   UNL     1      48.542  48.523  16.711  1.00  0.00    -0.336 N 
ATOM      4  C   UNL     1      48.669  47.023  16.610  1.00  0.00    +0.332 C 
ATOM      5  H   UNL     1      49.285  48.853  17.340  1.00  0.00    +0.347 HD
BRANCH   3   6
ATOM      6  C   UNL     1      47.203  48.952  17.303  1.00  0.00    +0.258 C 
ATOM      7  C   UNL     1      47.110  48.562  18.767  1.00  0.00    +0.071 C 
ENDBRANCH   3   6
ENDBRANCH   2   3
ENDBRANCH   1   2
BRANCH   1   8
ATOM      8  N   UNL     1      50.334  50.565  16.707  1.00  0.00    -0.332 N 
ATOM      9  C   UNL     1      49.930  51.587  17.533  1.00  0.00    +0.317 C 
ATOM     10  O   UNL     1      49.089  52.396  17.146  1.00  0.00    -0.249 OA
ATOM     11  H   UNL     1      50.524  49.703  17.199  1.00  0.00    +0.165 HD
BRANCH   9  12
ATOM     12  N   UNL     1      50.552  51.648  18.767  1.00  0.00    -0.324 N 
ATOM     13  C   UNL     1      51.190  50.417  19.246  1.00  0.00    +0.121 C 
ATOM     14  C   UNL     1      50.971  52.887  19.437  1.00  0.00    +0.134 C 
ATOM     15  C   UNL     1      51.159  50.292  20.765  1.00  0.00    +0.022 C 
ATOM     16  C   UNL     1      50.967  52.779  20.966  1.00  0.00    +0.098 C 
ATOM     17  C   UNL     1      51.736  51.537  21.425  1.00  0.00    +0.017 C 
BRANCH  16  18
ATOM     18  C   UNL     1      51.562  54.060  21.547  1.00  0.00    +0.231 C 
ATOM     19  O   UNL     1      51.873  54.131  22.730  1.00  0.00    -0.274 OA
ATOM     20  N   UNL     1      51.744  55.029  20.585  1.00  0.00    -0.302 N 
ATOM     21  H   UNL     1      51.377  54.900  19.651  1.00  0.00    +0.172 HD
BRANCH  20  22
ATOM     22  C   UNL     1      52.299  56.272  20.751  1.00  0.00    +0.189 A 
ATOM     23  N   UNL     1      53.585  56.455  20.552  1.00  0.00    -0.229 NA
ATOM     24  S   UNL     1      51.413  57.641  21.238  1.00  0.00    -0.105 S 
ATOM     25  C   UNL     1      53.897  57.783  20.769  1.00  0.00    +0.125 A 
ATOM     26  C   UNL     1      52.841  58.584  21.148  1.00  0.00    +0.088 A 
ENDBRANCH  20  22
ENDBRANCH  16  18
ENDBRANCH   9  12
ENDBRANCH   1   8
TORSDOF 7
ENDMDL
MODEL 2
REMARK VINA RESULT:    -7.084      3.152      8.341
REMARK INTER + INTRA:         -10.746
REMARK INTER:                 -10.220
REMARK INTRA:                  -0.526
REMARK UNBOUND:                -0.764
REMARK SMILES CC[NH+](C)CCNC(=O)N1CCC[C@@H](C(=O)Nc2nccs2)C1
REMARK SMILES IDX 6 1 5 2 3 3 4 4 2 6 1 7 7 8 8 9 9 10 10 12 11 13 23 14 12 15
REMARK SMILES IDX 14 16 13 17 15 18 16 19 17 20 18 22 19 23 22 24 20 25 21 26
REMARK H PARENT 3 5 7 11 17 21
ROOT
ATOM      1  C   UNL     1      51.815  55.470  19.199  1.00  0.00    +0.179 C 
ENDROOT
BRANCH   1   2
ATOM      2  C   UNL     1      52.389  56.188  20.441  1.00  0.00    +0.283 C 
BRANCH   2   3
ATOM      3  N   UNL     1      51.572  57.420  20.828  1.00  0.00    -0.336 N 
ATOM      4  C   UNL     1      52.479  58.487  21.389  1.00  0.00    +0.332 C 
ATOM      5  H   UNL     1      51.146  57.798  19.971  1.00  0.00    +0.347 HD
BRANCH   3   6
ATOM      6  C   UNL     1      50.445  57.054  21.788  1.00  0.00    +0.258 C 
ATOM      7  C   UNL     1      49.146  57.721  21.377  1.00  0.00    +0.071 C 
ENDBRANCH   3   6
ENDBRANCH   2   3
ENDBRANCH   1   2
BRANCH   1   8
ATOM      8  N   UNL     1      51.197  54.191  19.506  1.00  0.00    -0.332 N 
ATOM      9  C   UNL     1      51.745  53.049  18.968  1.00  0.00    +0.317 C 
ATOM     10  O   UNL     1      52.684  53.130  18.180  1.00  0.00    -0.249 OA
ATOM     11  H   UNL     1      50.897  54.078  20.464  1.00  0.00    +0.165 HD
BRANCH   9  12
ATOM     12  N   UNL     1      51.149  51.859  19.344  1.00  0.00    -0.324 N 
ATOM     13  C   UNL     1      51.200  51.516  20.769  1.00  0.00    +0.121 C 
ATOM     14  C   UNL     1      50.152  51.129  18.546  1.00  0.00    +0.134 C 
ATOM     15  C   UNL     1      51.255  50.012  21.010  1.00  0.00    +0.022 C 
ATOM     16  C   UNL     1      50.177  49.616  18.787  1.00  0.00    +0.098 C 
ATOM     17  C   UNL     1      50.120  49.303  20.284  1.00  0.00    +0.017 C 
BRANCH  16  18
ATOM     18  C   UNL     1      49.010  48.983  18.032  1.00  0.00    +0.231 C 
ATOM     19  O   UNL     1      49.181  48.436  16.949  1.00  0.00    -0.274 OA
ATOM     20  N   UNL     1      47.831  49.061  18.741  1.00  0.00    -0.302 N 
ATOM     21  H   UNL     1      47.779  49.608  19.590  1.00  0.00    +0.172 HD
BRANCH  20  22
ATOM     22  C   UNL     1      46.609  48.553  18.382  1.00  0.00    +0.189 A 
ATOM     23  N   UNL     1      46.018  47.655  19.137  1.00  0.00    -0.229 NA
ATOM     24  S   UNL     1      45.783  49.002  16.963  1.00  0.00    -0.105 S 
ATOM     25  C   UNL     1      44.803  47.312  18.574  1.00  0.00    +0.125 A 
ATOM     26  C   UNL     1      44.502  47.945  17.386  1.00  0.00    +0.088 A 
ENDBRANCH  20  22
ENDBRANCH  16  18
ENDBRANCH   9  12
ENDBRANCH   1   8
TORSDOF 7
ENDMDL
MODEL 3
REMARK VINA RESULT:    -6.912      3.176      7.996
REMARK INTER + INTRA:         -10.505
REMARK INTER:                  -9.852
REMARK INTRA:                  -0.653
REMARK UNBOUND:                -0.764
REMARK SMILES CC[NH+](C)CCNC(=O)N1CCC[C@@H](C(=O)Nc2nccs2)C1
REMARK SMILES IDX 6 1 5 2 3 3 4 4 2 6 1 7 7 8 8 9 9 10 10 12 11 13 23 14 12 15
REMARK SMILES IDX 14 16 13 17 15 18 16 19 17 20 18 22 19 23 22 24 20 25 21 26
REMARK H PARENT 3 5 7 11 17 21
ROOT
ATOM      1  C   UNL     1      52.116  55.943  20.855  1.00  0.00    +0.179 C 
ENDROOT
BRANCH   1   2
ATOM      2  C   UNL     1      50.984  56.897  20.410  1.00  0.00    +0.283 C 
BRANCH   2   3
ATOM      3  N   UNL     1      49.654  56.576  21.092  1.00  0.00    -0.336 N 
ATOM      4  C   UNL     1      48.773  55.783  20.159  1.00  0.00    +0.332 C 
ATOM      5  H   UNL     1      49.853  55.981  21.907  1.00  0.00    +0.347 HD
BRANCH   3   6
ATOM      6  C   UNL     1      48.973  57.845  21.593  1.00  0.00    +0.258 C 
ATOM      7  C   UNL     1      47.765  58.183  20.739  1.00  0.00    +0.071 C 
ENDBRANCH   3   6
ENDBRANCH   2   3
ENDBRANCH   1   2
BRANCH   1   8
ATOM      8  N   UNL     1      51.972  54.594  20.334  1.00  0.00    -0.332 N 
ATOM      9  C   UNL     1      51.796  53.560  21.224  1.00  0.00    +0.317 C 
ATOM     10  O   UNL     1      51.846  53.773  22.433  1.00  0.00    -0.249 OA
ATOM     11  H   UNL     1      51.397  54.512  19.507  1.00  0.00    +0.165 HD
BRANCH   9  12
ATOM     12  N   UNL     1      51.606  52.309  20.665  1.00  0.00    -0.324 N 
ATOM     13  C   UNL     1      52.391  51.207  21.231  1.00  0.00    +0.121 C 
ATOM     14  C   UNL     1      50.439  51.915  19.862  1.00  0.00    +0.134 C 
ATOM     15  C   UNL     1      52.733  50.139  20.199  1.00  0.00    +0.022 C 
ATOM     16  C   UNL     1      50.755  50.827  18.830  1.00  0.00    +0.098 C 
ATOM     17  C   UNL     1      51.480  49.649  19.487  1.00  0.00    +0.017 C 
BRANCH  16  18
ATOM     18  C   UNL     1      49.450  50.390  18.167  1.00  0.00    +0.231 C 
ATOM     19  O   UNL     1      48.928  51.071  17.293  1.00  0.00    -0.274 OA
ATOM     20  N   UNL     1      49.021  49.164  18.627  1.00  0.00    -0.302 N 
ATOM     21  H   UNL     1      49.481  48.721  19.411  1.00  0.00    +0.172 HD
BRANCH  20  22
ATOM     22  C   UNL     1      47.921  48.459  18.212  1.00  0.00    +0.189 A 
ATOM     23  N   UNL     1      46.801  48.515  18.896  1.00  0.00    -0.229 NA
ATOM     24  S   UNL     1      47.910  47.457  16.835  1.00  0.00    -0.105 S 
ATOM     25  C   UNL     1      45.845  47.734  18.275  1.00  0.00    +0.125 A 
ATOM     26  C   UNL     1      46.265  47.082  17.135  1.00  0.00    +0.088 A 
ENDBRANCH  20  22
ENDBRANCH  16  18
ENDBRANCH   9  12
ENDBRANCH   1   8
TORSDOF 7
ENDMDL
MODEL 4
REMARK VINA RESULT:    -6.764      3.244      8.321
REMARK INTER + INTRA:         -10.296
REMARK INTER:                  -9.812
REMARK INTRA:                  -0.484
REMARK UNBOUND:                -0.764
REMARK SMILES CC[NH+](C)CCNC(=O)N1CCC[C@@H](C(=O)Nc2nccs2)C1
REMARK SMILES IDX 6 1 5 2 3 3 4 4 2 6 1 7 7 8 8 9 9 10 10 12 11 13 23 14 12 15
REMARK SMILES IDX 14 16 13 17 15 18 16 19 17 20 18 22 19 23 22 24 20 25 21 26
REMARK H PARENT 3 5 7 11 17 21
ROOT
ATOM      1  C   UNL     1      51.679  55.652  19.161  1.00  0.00    +0.179 C 
ENDROOT
BRANCH   1   2
ATOM      2  C   UNL     1      52.479  56.320  20.303  1.00  0.00    +0.283 C 
BRANCH   2   3
ATOM      3  N   UNL     1      51.753  57.533  20.885  1.00  0.00    -0.336 N 
ATOM      4  C   UNL     1      52.753  58.519  21.433  1.00  0.00    +0.332 C 
ATOM      5  H   UNL     1      51.251  57.998  20.118  1.00  0.00    +0.347 HD
BRANCH   3   6
ATOM      6  C   UNL     1      50.725  57.109  21.929  1.00  0.00    +0.258 C 
ATOM      7  C   UNL     1      49.315  57.388  21.442  1.00  0.00    +0.071 C 
ENDBRANCH   3   6
ENDBRANCH   2   3
ENDBRANCH   1   2
BRANCH   1   8
ATOM      8  N   UNL     1      51.160  54.340  19.511  1.00  0.00    -0.332 N 
ATOM      9  C   UNL     1      51.794  53.226  19.013  1.00  0.00    +0.317 C 
ATOM     10  O   UNL     1      52.727  53.351  18.222  1.00  0.00    -0.249 OA
ATOM     11  H   UNL     1      50.866  54.237  20.472  1.00  0.00    +0.165 HD
BRANCH   9  12
ATOM     12  N   UNL     1      51.289  52.007  19.428  1.00  0.00    -0.324 N 
ATOM     13  C   UNL     1      51.598  51.599  20.802  1.00  0.00    +0.121 C 
ATOM     14  C   UNL     1      50.175  51.296  18.785  1.00  0.00    +0.134 C 
ATOM     15  C   UNL     1      51.714  50.087  20.953  1.00  0.00    +0.022 C 
ATOM     16  C   UNL     1      50.260  49.773  18.941  1.00  0.00    +0.098 C 
ATOM     17  C   UNL     1      50.475  49.389  20.407  1.00  0.00    +0.017 C 
BRANCH  16  18
ATOM     18  C   UNL     1      48.984  49.154  18.375  1.00  0.00    +0.231 C 
ATOM     19  O   UNL     1      48.014  48.940  19.092  1.00  0.00    -0.274 OA
ATOM     20  N   UNL     1      49.066  48.950  17.014  1.00  0.00    -0.302 N 
ATOM     21  H   UNL     1      49.943  49.083  16.528  1.00  0.00    +0.172 HD
BRANCH  20  22
ATOM     22  C   UNL     1      48.090  48.460  16.186  1.00  0.00    +0.189 A 
ATOM     23  N   UNL     1      47.687  49.162  15.151  1.00  0.00    -0.229 NA
ATOM     24  S   UNL     1      47.315  46.964  16.425  1.00  0.00    -0.105 S 
ATOM     25  C   UNL     1      46.712  48.456  14.471  1.00  0.00    +0.125 A 
ATOM     26  C   UNL     1      46.379  47.234  15.015  1.00  0.00    +0.088 A 
ENDBRANCH  20  22
ENDBRANCH  16  18
ENDBRANCH   9  12
ENDBRANCH   1   8
TORSDOF 7
ENDMDL
MODEL 5
REMARK VINA RESULT:    -6.305      5.482      9.068
REMARK INTER + INTRA:          -9.649
REMARK INTER:                  -9.039
REMARK INTRA:                  -0.610
REMARK UNBOUND:                -0.764
REMARK SMILES CC[NH+](C)CCNC(=O)N1CCC[C@@H](C(=O)Nc2nccs2)C1
REMARK SMILES IDX 6 1 5 2 3 3 4 4 2 6 1 7 7 8 8 9 9 10 10 12 11 13 23 14 12 15
REMARK SMILES IDX 14 16 13 17 15 18 16 19 17 20 18 22 19 23 22 24 20 25 21 26
REMARK H PARENT 3 5 7 11 17 21
ROOT
ATOM      1  C   UNL     1      46.714  60.455  18.437  1.00  0.00    +0.179 C 
ENDROOT
BRANCH   1   2
ATOM      2  C   UNL     1      45.455  60.993  19.154  1.00  0.00    +0.283 C 
BRANCH   2   3
ATOM      3  N   UNL     1      45.578  62.475  19.507  1.00  0.00    -0.336 N 
ATOM      4  C   UNL     1      44.226  63.139  19.430  1.00  0.00    +0.332 C 
ATOM      5  H   UNL     1      45.899  62.542  20.481  1.00  0.00    +0.347 HD
BRANCH   3   6
ATOM      6  C   UNL     1      46.614  63.166  18.625  1.00  0.00    +0.258 C 
ATOM      7  C   UNL     1      45.940  64.057  17.597  1.00  0.00    +0.071 C 
ENDBRANCH   3   6
ENDBRANCH   2   3
ENDBRANCH   1   2
BRANCH   1   8
ATOM      8  N   UNL     1      47.501  59.547  19.255  1.00  0.00    -0.332 N 
ATOM      9  C   UNL     1      47.860  58.330  18.728  1.00  0.00    +0.317 C 
ATOM     10  O   UNL     1      47.448  57.993  17.619  1.00  0.00    -0.249 OA
ATOM     11  H   UNL     1      48.236  59.983  19.794  1.00  0.00    +0.165 HD
BRANCH   9  12
ATOM     12  N   UNL     1      48.658  57.535  19.532  1.00  0.00    -0.324 N 
ATOM     13  C   UNL     1      48.524  57.718  20.981  1.00  0.00    +0.121 C 
ATOM     14  C   UNL     1      49.306  56.288  19.101  1.00  0.00    +0.134 C 
ATOM     15  C   UNL     1      49.826  57.456  21.728  1.00  0.00    +0.022 C 
ATOM     16  C   UNL     1      50.609  55.993  19.854  1.00  0.00    +0.098 C 
ATOM     17  C   UNL     1      50.395  56.090  21.367  1.00  0.00    +0.017 C 
BRANCH  16  18
ATOM     18  C   UNL     1      51.109  54.611  19.441  1.00  0.00    +0.231 C 
ATOM     19  O   UNL     1      52.113  54.483  18.751  1.00  0.00    -0.274 OA
ATOM     20  N   UNL     1      50.345  53.600  19.983  1.00  0.00    -0.302 N 
ATOM     21  H   UNL     1      49.486  53.813  20.472  1.00  0.00    +0.172 HD
BRANCH  20  22
ATOM     22  C   UNL     1      50.543  52.249  19.858  1.00  0.00    +0.189 A 
ATOM     23  N   UNL     1      50.075  51.606  18.812  1.00  0.00    -0.229 NA
ATOM     24  S   UNL     1      51.359  51.305  21.016  1.00  0.00    -0.105 S 
ATOM     25  C   UNL     1      50.411  50.269  18.909  1.00  0.00    +0.125 A 
ATOM     26  C   UNL     1      51.114  49.917  20.042  1.00  0.00    +0.088 A 
ENDBRANCH  20  22
ENDBRANCH  16  18
ENDBRANCH   9  12
ENDBRANCH   1   8
TORSDOF 7
ENDMDL
