MODEL 1
REMARK VINA RESULT:    -8.568      0.000      0.000
REMARK INTER + INTRA:         -13.477
REMARK INTER:                 -12.575
REMARK INTRA:                  -0.902
REMARK UNBOUND:                -0.902
REMARK SMILES CC(C)CCC(=O)NNC(=O)NCc1ccc(OC2CCCC2)cc1
REMARK SMILES IDX 9 1 10 2 11 3 12 4 8 7 6 8 7 9 5 11 4 12 2 13 1 14 3 15
REMARK SMILES IDX 13 16 14 17 15 18 25 19 16 20 24 21 17 22 18 23 19 24 20 25
REMARK SMILES IDX 23 26 21 27 22 28
REMARK H PARENT 9 5 12 6 8 10
ROOT
ATOM      1  N   UNL     1      52.077  54.164  20.797  1.00  0.00    -0.249 N 
ATOM      2  C   UNL     1      52.098  53.437  19.622  1.00  0.00    +0.333 C 
ATOM      3  O   UNL     1      52.028  53.958  18.514  1.00  0.00    -0.247 OA
ATOM      4  N   UNL     1      52.205  52.092  19.855  1.00  0.00    -0.333 N 
ATOM      5  H   UNL     1      51.592  53.724  21.579  1.00  0.00    +0.193 HD
ATOM      6  H   UNL     1      52.642  51.834  20.728  1.00  0.00    +0.165 HD
ENDROOT
BRANCH   1   7
ATOM      7  N   UNL     1      51.756  55.538  20.657  1.00  0.00    -0.266 N 
ATOM      8  C   UNL     1      51.597  56.249  21.835  1.00  0.00    +0.238 C 
ATOM      9  O   UNL     1      51.951  55.807  22.925  1.00  0.00    -0.273 OA
ATOM     10  H   UNL     1      51.126  55.734  19.876  1.00  0.00    +0.191 HD
BRANCH   8  11
ATOM     11  C   UNL     1      50.948  57.604  21.622  1.00  0.00    +0.102 C 
BRANCH  11  12
ATOM     12  C   UNL     1      49.430  57.547  21.799  1.00  0.00    +0.013 C 
BRANCH  12  13
ATOM     13  C   UNL     1      48.618  57.494  20.490  1.00  0.00    -0.017 C 
ATOM     14  C   UNL     1      48.343  56.060  20.038  1.00  0.00    +0.007 C 
ATOM     15  C   UNL     1      47.312  58.285  20.581  1.00  0.00    +0.007 C 
ENDBRANCH  12  13
ENDBRANCH  11  12
ENDBRANCH   8  11
ENDBRANCH   1   7
BRANCH   4  16
ATOM     16  C   UNL     1      52.350  51.155  18.763  1.00  0.00    +0.153 C 
BRANCH  16  17
ATOM     17  C   UNL     1      51.075  50.386  18.532  1.00  0.00    -0.028 A 
ATOM     18  C   UNL     1      50.417  50.460  17.297  1.00  0.00    +0.009 A 
ATOM     19  C   UNL     1      50.546  49.558  19.528  1.00  0.00    +0.009 A 
ATOM     20  C   UNL     1      49.242  49.734  17.068  1.00  0.00    +0.047 A 
ATOM     21  C   UNL     1      49.373  48.836  19.295  1.00  0.00    +0.047 A 
ATOM     22  C   UNL     1      48.709  48.927  18.069  1.00  0.00    +0.119 A 
BRANCH  22  23
ATOM     23  O   UNL     1      47.577  48.166  17.978  1.00  0.00    -0.490 OA
BRANCH  23  24
ATOM     24  C   UNL     1      46.356  48.705  18.493  1.00  0.00    +0.173 C 
ATOM     25  C   UNL     1      45.575  49.434  17.398  1.00  0.00    +0.045 C 
ATOM     26  C   UNL     1      45.434  47.536  18.836  1.00  0.00    +0.045 C 
ATOM     27  C   UNL     1      44.793  48.353  16.650  1.00  0.00    +0.004 C 
ATOM     28  C   UNL     1      44.911  47.079  17.481  1.00  0.00    +0.004 C 
ENDBRANCH  23  24
ENDBRANCH  22  23
ENDBRANCH  16  17
ENDBRANCH   4  16
TORSDOF 8
ENDMDL
MODEL 2
REMARK VINA RESULT:    -8.261      2.676      9.035
REMARK INTER + INTRA:         -13.026
REMARK INTER:                 -12.139
REMARK INTRA:                  -0.887
REMARK UNBOUND:                -0.902
REMARK SMILES CC(C)CCC(=O)NNC(=O)NCc1ccc(OC2CCCC2)cc1
REMARK SMILES IDX 9 1 10 2 11 3 12 4 8 7 6 8 7 9 5 11 4 12 2 13 1 14 3 15
REMARK SMILES IDX 13 16 14 17 15 18 25 19 16 20 24 21 17 22 18 23 19 24 20 25
REMARK SMILES IDX 23 26 21 27 22 28
REMARK H PARENT 9 5 12 6 8 10
ROOT
ATOM      1  N   UNL     1      51.065  52.671  18.062  1.00  0.00    -0.249 N 
ATOM      2  C   UNL     1      50.697  53.157  19.303  1.00  0.00    +0.333 C 
ATOM      3  O   UNL     1      50.354  52.430  20.230  1.00  0.00    -0.247 OA
ATOM      4  N   UNL     1      50.765  54.524  19.357  1.00  0.00    -0.333 N 
ATOM      5  H   UNL     1      50.790  53.245  17.265  1.00  0.00    +0.193 HD
ATOM      6  H   UNL     1      51.411  54.954  18.712  1.00  0.00    +0.165 HD
ENDROOT
BRANCH   1   7
ATOM      7  N   UNL     1      50.820  51.290  17.853  1.00  0.00    -0.266 N 
ATOM      8  C   UNL     1      49.633  50.972  17.215  1.00  0.00    +0.238 C 
ATOM      9  O   UNL     1      48.948  51.814  16.639  1.00  0.00    -0.273 OA
ATOM     10  H   UNL     1      51.138  50.696  18.622  1.00  0.00    +0.191 HD
BRANCH   8  11
ATOM     11  C   UNL     1      49.287  49.499  17.312  1.00  0.00    +0.102 C 
BRANCH  11  12
ATOM     12  C   UNL     1      48.220  49.229  18.375  1.00  0.00    +0.013 C 
BRANCH  12  13
ATOM     13  C   UNL     1      46.877  48.698  17.837  1.00  0.00    -0.017 C 
ATOM     14  C   UNL     1      46.140  47.841  18.866  1.00  0.00    +0.007 C 
ATOM     15  C   UNL     1      45.970  49.818  17.325  1.00  0.00    +0.007 C 
ENDBRANCH  12  13
ENDBRANCH  11  12
ENDBRANCH   8  11
ENDBRANCH   1   7
BRANCH   4  16
ATOM     16  C   UNL     1      50.524  55.234  20.594  1.00  0.00    +0.153 C 
BRANCH  16  17
ATOM     17  C   UNL     1      49.543  56.361  20.392  1.00  0.00    -0.028 A 
ATOM     18  C   UNL     1      48.854  56.492  19.180  1.00  0.00    +0.009 A 
ATOM     19  C   UNL     1      49.275  57.270  21.421  1.00  0.00    +0.009 A 
ATOM     20  C   UNL     1      47.928  57.525  18.991  1.00  0.00    +0.047 A 
ATOM     21  C   UNL     1      48.350  58.299  21.229  1.00  0.00    +0.047 A 
ATOM     22  C   UNL     1      47.679  58.438  20.011  1.00  0.00    +0.119 A 
BRANCH  22  23
ATOM     23  O   UNL     1      46.802  59.486  19.963  1.00  0.00    -0.490 OA
BRANCH  23  24
ATOM     24  C   UNL     1      46.634  60.172  18.718  1.00  0.00    +0.173 C 
ATOM     25  C   UNL     1      45.195  60.662  18.553  1.00  0.00    +0.045 C 
ATOM     26  C   UNL     1      47.424  61.478  18.791  1.00  0.00    +0.045 C 
ATOM     27  C   UNL     1      45.116  61.992  19.307  1.00  0.00    +0.004 C 
ATOM     28  C   UNL     1      46.551  62.381  19.651  1.00  0.00    +0.004 C 
ENDBRANCH  23  24
ENDBRANCH  22  23
ENDBRANCH  16  17
ENDBRANCH   4  16
TORSDOF 8
ENDMDL
MODEL 3
REMARK VINA RESULT:    -8.186      2.165      8.039
REMARK INTER + INTRA:         -12.917
REMARK INTER:                 -11.887
REMARK INTRA:                  -1.030
REMARK UNBOUND:                -0.902
REMARK SMILES CC(C)CCC(=O)NNC(=O)NCc1ccc(OC2CCCC2)cc1
REMARK SMILES IDX 9 1 10 2 11 3 12 4 8 7 6 8 7 9 5 11 4 12 2 13 1 14 3 15
REMARK SMILES IDX 13 16 14 17 15 18 25 19 16 20 24 21 17 22 18 23 19 24 20 25
REMARK SMILES IDX 23 26 21 27 22 28
REMARK H PARENT 9 5 12 6 8 10
ROOT
ATOM      1  N   UNL     1      51.220  50.528  16.507  1.00  0.00    -0.249 N 
ATOM      2  C   UNL     1      51.395  50.835  17.843  1.00  0.00    +0.333 C 
ATOM      3  O   UNL     1      50.784  50.269  18.744  1.00  0.00    -0.247 OA
ATOM      4  N   UNL     1      52.319  51.830  18.022  1.00  0.00    -0.333 N 
ATOM      5  H   UNL     1      51.277  51.316  15.863  1.00  0.00    +0.193 HD
ATOM      6  H   UNL     1      53.008  51.921  17.290  1.00  0.00    +0.165 HD
ENDROOT
BRANCH   1   7
ATOM      7  N   UNL     1      50.133  49.663  16.219  1.00  0.00    -0.266 N 
ATOM      8  C   UNL     1      48.952  50.278  15.838  1.00  0.00    +0.238 C 
ATOM      9  O   UNL     1      48.898  51.464  15.520  1.00  0.00    -0.273 OA
ATOM     10  H   UNL     1      50.085  48.847  16.831  1.00  0.00    +0.191 HD
BRANCH   8  11
ATOM     11  C   UNL     1      47.763  49.336  15.860  1.00  0.00    +0.102 C 
BRANCH  11  12
ATOM     12  C   UNL     1      47.687  48.539  17.164  1.00  0.00    +0.013 C 
BRANCH  12  13
ATOM     13  C   UNL     1      46.497  48.887  18.079  1.00  0.00    -0.017 C 
ATOM     14  C   UNL     1      45.247  49.261  17.283  1.00  0.00    +0.007 C 
ATOM     15  C   UNL     1      46.182  47.771  19.075  1.00  0.00    +0.007 C 
ENDBRANCH  12  13
ENDBRANCH  11  12
ENDBRANCH   8  11
ENDBRANCH   1   7
BRANCH   4  16
ATOM     16  C   UNL     1      52.733  52.233  19.348  1.00  0.00    +0.153 C 
BRANCH  16  17
ATOM     17  C   UNL     1      52.049  53.509  19.767  1.00  0.00    -0.028 A 
ATOM     18  C   UNL     1      51.575  53.662  21.076  1.00  0.00    +0.009 A 
ATOM     19  C   UNL     1      51.908  54.574  18.871  1.00  0.00    +0.009 A 
ATOM     20  C   UNL     1      50.955  54.850  21.480  1.00  0.00    +0.047 A 
ATOM     21  C   UNL     1      51.287  55.759  19.278  1.00  0.00    +0.047 A 
ATOM     22  C   UNL     1      50.800  55.900  20.579  1.00  0.00    +0.119 A 
BRANCH  22  23
ATOM     23  O   UNL     1      50.220  57.110  20.840  1.00  0.00    -0.490 OA
BRANCH  23  24
ATOM     24  C   UNL     1      48.863  57.128  21.293  1.00  0.00    +0.173 C 
ATOM     25  C   UNL     1      48.328  58.559  21.366  1.00  0.00    +0.045 C 
ATOM     26  C   UNL     1      47.995  56.503  20.202  1.00  0.00    +0.045 C 
ATOM     27  C   UNL     1      47.869  58.908  19.948  1.00  0.00    +0.004 C 
ATOM     28  C   UNL     1      47.884  57.604  19.155  1.00  0.00    +0.004 C 
ENDBRANCH  23  24
ENDBRANCH  22  23
ENDBRANCH  16  17
ENDBRANCH   4  16
TORSDOF 8
ENDMDL
MODEL 4
REMARK VINA RESULT:    -8.014      1.674      2.310
REMARK INTER + INTRA:         -12.664
REMARK INTER:                 -12.044
REMARK INTRA:                  -0.620
REMARK UNBOUND:                -0.902
REMARK SMILES CC(C)CCC(=O)NNC(=O)NCc1ccc(OC2CCCC2)cc1
REMARK SMILES IDX 9 1 10 2 11 3 12 4 8 7 6 8 7 9 5 11 4 12 2 13 1 14 3 15
REMARK SMILES IDX 13 16 14 17 15 18 25 19 16 20 24 21 17 22 18 23 19 24 20 25
REMARK SMILES IDX 23 26 21 27 22 28
REMARK H PARENT 9 5 12 6 8 10
ROOT
ATOM      1  N   UNL     1      51.470  55.003  20.832  1.00  0.00    -0.249 N 
ATOM      2  C   UNL     1      51.280  53.705  21.266  1.00  0.00    +0.333 C 
ATOM      3  O   UNL     1      50.358  53.376  22.006  1.00  0.00    -0.247 OA
ATOM      4  N   UNL     1      52.234  52.856  20.772  1.00  0.00    -0.333 N 
ATOM      5  H   UNL     1      52.441  55.299  20.739  1.00  0.00    +0.193 HD
ATOM      6  H   UNL     1      52.665  53.142  19.905  1.00  0.00    +0.165 HD
ENDROOT
BRANCH   1   7
ATOM      7  N   UNL     1      50.658  55.980  21.463  1.00  0.00    -0.266 N 
ATOM      8  C   UNL     1      49.506  56.343  20.784  1.00  0.00    +0.238 C 
ATOM      9  O   UNL     1      49.070  55.700  19.832  1.00  0.00    -0.273 OA
ATOM     10  H   UNL     1      51.190  56.704  21.948  1.00  0.00    +0.191 HD
BRANCH   8  11
ATOM     11  C   UNL     1      48.865  57.599  21.342  1.00  0.00    +0.102 C 
BRANCH  11  12
ATOM     12  C   UNL     1      47.595  57.983  20.580  1.00  0.00    +0.013 C 
BRANCH  12  13
ATOM     13  C   UNL     1      47.808  58.927  19.381  1.00  0.00    -0.017 C 
ATOM     14  C   UNL     1      47.540  58.234  18.045  1.00  0.00    +0.007 C 
ATOM     15  C   UNL     1      46.982  60.209  19.494  1.00  0.00    +0.007 C 
ENDBRANCH  12  13
ENDBRANCH  11  12
ENDBRANCH   8  11
ENDBRANCH   1   7
BRANCH   4  16
ATOM     16  C   UNL     1      52.164  51.432  21.016  1.00  0.00    +0.153 C 
BRANCH  16  17
ATOM     17  C   UNL     1      51.232  50.758  20.042  1.00  0.00    -0.028 A 
ATOM     18  C   UNL     1      50.637  49.532  20.363  1.00  0.00    +0.009 A 
ATOM     19  C   UNL     1      50.915  51.361  18.820  1.00  0.00    +0.009 A 
ATOM     20  C   UNL     1      49.755  48.908  19.472  1.00  0.00    +0.047 A 
ATOM     21  C   UNL     1      50.035  50.735  17.933  1.00  0.00    +0.047 A 
ATOM     22  C   UNL     1      49.458  49.503  18.248  1.00  0.00    +0.119 A 
BRANCH  22  23
ATOM     23  O   UNL     1      48.616  49.008  17.292  1.00  0.00    -0.490 OA
BRANCH  23  24
ATOM     24  C   UNL     1      47.708  47.966  17.662  1.00  0.00    +0.173 C 
ATOM     25  C   UNL     1      46.486  48.537  18.385  1.00  0.00    +0.045 C 
ATOM     26  C   UNL     1      47.100  47.395  16.382  1.00  0.00    +0.045 C 
ATOM     27  C   UNL     1      45.526  48.996  17.286  1.00  0.00    +0.004 C 
ATOM     28  C   UNL     1      46.071  48.440  15.974  1.00  0.00    +0.004 C 
ENDBRANCH  23  24
ENDBRANCH  22  23
ENDBRANCH  16  17
ENDBRANCH   4  16
TORSDOF 8
ENDMDL
MODEL 5
REMARK VINA RESULT:    -7.694      2.236      3.519
REMARK INTER + INTRA:         -12.194
REMARK INTER:                 -11.350
REMARK INTRA:                  -0.844
REMARK UNBOUND:                -0.902
REMARK SMILES CC(C)CCC(=O)NNC(=O)NCc1ccc(OC2CCCC2)cc1
REMARK SMILES IDX 9 1 10 2 11 3 12 4 8 7 6 8 7 9 5 11 4 12 2 13 1 14 3 15
REMARK SMILES IDX 13 16 14 17 15 18 25 19 16 20 24 21 17 22 18 23 19 24 20 25
REMARK SMILES IDX 23 26 21 27 22 28
REMARK H PARENT 9 5 12 6 8 10
ROOT
ATOM      1  N   UNL     1      50.489  52.626  18.146  1.00  0.00    -0.249 N 
ATOM      2  C   UNL     1      50.401  51.496  18.937  1.00  0.00    +0.333 C 
ATOM      3  O   UNL     1      50.813  51.456  20.092  1.00  0.00    -0.247 OA
ATOM      4  N   UNL     1      49.806  50.454  18.277  1.00  0.00    -0.333 N 
ATOM      5  H   UNL     1      50.668  52.457  17.156  1.00  0.00    +0.193 HD
ATOM      6  H   UNL     1      49.179  50.713  17.529  1.00  0.00    +0.165 HD
ENDROOT
BRANCH   1   7
ATOM      7  N   UNL     1      51.278  53.679  18.674  1.00  0.00    -0.266 N 
ATOM      8  C   UNL     1      50.619  54.875  18.907  1.00  0.00    +0.238 C 
ATOM      9  O   UNL     1      49.394  54.965  18.904  1.00  0.00    -0.273 OA
ATOM     10  H   UNL     1      52.228  53.707  18.299  1.00  0.00    +0.191 HD
BRANCH   8  11
ATOM     11  C   UNL     1      51.568  56.031  19.159  1.00  0.00    +0.102 C 
BRANCH  11  12
ATOM     12  C   UNL     1      52.148  55.998  20.575  1.00  0.00    +0.013 C 
BRANCH  12  13
ATOM     13  C   UNL     1      51.108  55.964  21.711  1.00  0.00    -0.017 C 
ATOM     14  C   UNL     1      51.727  55.564  23.050  1.00  0.00    +0.007 C 
ATOM     15  C   UNL     1      50.348  57.284  21.846  1.00  0.00    +0.007 C 
ENDBRANCH  12  13
ENDBRANCH  11  12
ENDBRANCH   8  11
ENDBRANCH   1   7
BRANCH   4  16
ATOM     16  C   UNL     1      49.518  49.209  18.954  1.00  0.00    +0.153 C 
BRANCH  16  17
ATOM     17  C   UNL     1      48.392  48.470  18.278  1.00  0.00    -0.028 A 
ATOM     18  C   UNL     1      48.648  47.643  17.177  1.00  0.00    +0.009 A 
ATOM     19  C   UNL     1      47.082  48.564  18.760  1.00  0.00    +0.009 A 
ATOM     20  C   UNL     1      47.611  46.937  16.555  1.00  0.00    +0.047 A 
ATOM     21  C   UNL     1      46.049  47.858  18.136  1.00  0.00    +0.047 A 
ATOM     22  C   UNL     1      46.305  47.049  17.026  1.00  0.00    +0.119 A 
BRANCH  22  23
ATOM     23  O   UNL     1      45.205  46.417  16.519  1.00  0.00    -0.490 OA
BRANCH  23  24
ATOM     24  C   UNL     1      44.274  47.187  15.753  1.00  0.00    +0.173 C 
ATOM     25  C   UNL     1      45.001  48.105  14.769  1.00  0.00    +0.045 C 
ATOM     26  C   UNL     1      43.524  46.232  14.826  1.00  0.00    +0.045 C 
ATOM     27  C   UNL     1      45.310  47.243  13.542  1.00  0.00    +0.004 C 
ATOM     28  C   UNL     1      44.526  45.945  13.716  1.00  0.00    +0.004 C 
ENDBRANCH  23  24
ENDBRANCH  22  23
ENDBRANCH  16  17
ENDBRANCH   4  16
TORSDOF 8
ENDMDL
