MODEL 1
REMARK VINA RESULT:    -7.468      0.000      0.000
REMARK INTER + INTRA:         -11.797
REMARK INTER:                 -10.961
REMARK INTRA:                  -0.836
REMARK UNBOUND:                -0.836
REMARK SMILES CC(C)CCC(=O)NNC(=O)NCCO[C@H]1CCCC[C@H]1C
REMARK SMILES IDX 12 1 10 2 11 3 9 4 13 7 14 8 15 9 16 10 21 11 20 12 19 13
REMARK SMILES IDX 17 14 18 15 22 16 8 17 6 18 7 19 5 21 4 22 2 23 1 24 3 25
REMARK H PARENT 12 5 9 6 8 20
ROOT
ATOM      1  N   UNL     1      51.947  51.653  17.824  1.00  0.00    -0.334 N 
ATOM      2  C   UNL     1      50.869  50.820  17.689  1.00  0.00    +0.333 C 
ATOM      3  O   UNL     1      50.151  50.450  18.613  1.00  0.00    -0.247 OA
ATOM      4  N   UNL     1      50.663  50.444  16.377  1.00  0.00    -0.249 N 
ATOM      5  H   UNL     1      52.229  52.161  16.998  1.00  0.00    +0.165 HD
ATOM      6  H   UNL     1      51.507  50.300  15.822  1.00  0.00    +0.193 HD
ENDROOT
BRANCH   1   7
ATOM      7  C   UNL     1      52.303  52.215  19.113  1.00  0.00    +0.146 C 
BRANCH   7   8
ATOM      8  C   UNL     1      52.815  53.654  19.028  1.00  0.00    +0.182 C 
BRANCH   8   9
ATOM      9  O   UNL     1      51.726  54.544  19.283  1.00  0.00    -0.376 OA
BRANCH   9  10
ATOM     10  C   UNL     1      50.952  54.173  20.433  1.00  0.00    +0.121 C 
ATOM     11  C   UNL     1      49.539  54.761  20.271  1.00  0.00    +0.015 C 
ATOM     12  C   UNL     1      49.570  56.298  20.169  1.00  0.00    +0.006 C 
ATOM     13  C   UNL     1      50.676  56.942  21.008  1.00  0.00    +0.000 C 
ATOM     14  C   UNL     1      51.623  54.702  21.714  1.00  0.00    +0.032 C 
ATOM     15  C   UNL     1      51.093  56.063  22.177  1.00  0.00    +0.003 C 
ATOM     16  C   UNL     1      48.810  54.168  19.063  1.00  0.00    +0.010 C 
ENDBRANCH   9  10
ENDBRANCH   8   9
ENDBRANCH   7   8
ENDBRANCH   1   7
BRANCH   4  17
ATOM     17  N   UNL     1      49.698  49.422  16.180  1.00  0.00    -0.266 N 
ATOM     18  C   UNL     1      48.513  49.818  15.583  1.00  0.00    +0.238 C 
ATOM     19  O   UNL     1      48.191  50.998  15.476  1.00  0.00    -0.273 OA
ATOM     20  H   UNL     1      50.102  48.520  15.928  1.00  0.00    +0.191 HD
BRANCH  18  21
ATOM     21  C   UNL     1      47.658  48.648  15.135  1.00  0.00    +0.102 C 
BRANCH  21  22
ATOM     22  C   UNL     1      46.971  47.917  16.290  1.00  0.00    +0.013 C 
BRANCH  22  23
ATOM     23  C   UNL     1      46.369  48.835  17.374  1.00  0.00    -0.017 C 
ATOM     24  C   UNL     1      47.085  48.596  18.706  1.00  0.00    +0.007 C 
ATOM     25  C   UNL     1      44.865  48.621  17.554  1.00  0.00    +0.007 C 
ENDBRANCH  22  23
ENDBRANCH  21  22
ENDBRANCH  18  21
ENDBRANCH   4  17
TORSDOF 8
ENDMDL
MODEL 2
REMARK VINA RESULT:    -7.395      1.731      2.690
REMARK INTER + INTRA:         -11.689
REMARK INTER:                 -11.227
REMARK INTRA:                  -0.462
REMARK UNBOUND:                -0.836
REMARK SMILES CC(C)CCC(=O)NNC(=O)NCCO[C@H]1CCCC[C@H]1C
REMARK SMILES IDX 12 1 10 2 11 3 9 4 13 7 14 8 15 9 16 10 21 11 20 12 19 13
REMARK SMILES IDX 17 14 18 15 22 16 8 17 6 18 7 19 5 21 4 22 2 23 1 24 3 25
REMARK H PARENT 12 5 9 6 8 20
ROOT
ATOM      1  N   UNL     1      52.239  52.187  19.103  1.00  0.00    -0.334 N 
ATOM      2  C   UNL     1      51.123  51.753  18.439  1.00  0.00    +0.333 C 
ATOM      3  O   UNL     1      50.134  52.441  18.208  1.00  0.00    -0.247 OA
ATOM      4  N   UNL     1      51.237  50.437  18.036  1.00  0.00    -0.249 N 
ATOM      5  H   UNL     1      53.095  51.680  18.923  1.00  0.00    +0.165 HD
ATOM      6  H   UNL     1      51.735  49.821  18.678  1.00  0.00    +0.193 HD
ENDROOT
BRANCH   1   7
ATOM      7  C   UNL     1      52.354  53.559  19.558  1.00  0.00    +0.146 C 
BRANCH   7   8
ATOM      8  C   UNL     1      51.759  53.791  20.947  1.00  0.00    +0.182 C 
BRANCH   8   9
ATOM      9  O   UNL     1      50.662  54.700  20.830  1.00  0.00    -0.376 OA
BRANCH   9  10
ATOM     10  C   UNL     1      50.922  55.784  19.926  1.00  0.00    +0.121 C 
ATOM     11  C   UNL     1      51.022  57.081  20.748  1.00  0.00    +0.015 C 
ATOM     12  C   UNL     1      49.716  57.374  21.511  1.00  0.00    +0.006 C 
ATOM     13  C   UNL     1      48.458  56.930  20.760  1.00  0.00    +0.000 C 
ATOM     14  C   UNL     1      49.795  55.881  18.881  1.00  0.00    +0.032 C 
ATOM     15  C   UNL     1      48.682  56.866  19.257  1.00  0.00    +0.003 C 
ATOM     16  C   UNL     1      52.204  57.050  21.720  1.00  0.00    +0.010 C 
ENDBRANCH   9  10
ENDBRANCH   8   9
ENDBRANCH   7   8
ENDBRANCH   1   7
BRANCH   4  17
ATOM     17  N   UNL     1      50.049  49.851  17.527  1.00  0.00    -0.266 N 
ATOM     18  C   UNL     1      49.240  49.219  18.458  1.00  0.00    +0.238 C 
ATOM     19  O   UNL     1      49.632  48.938  19.588  1.00  0.00    -0.273 OA
ATOM     20  H   UNL     1      49.613  50.389  16.778  1.00  0.00    +0.191 HD
BRANCH  18  21
ATOM     21  C   UNL     1      47.866  48.880  17.912  1.00  0.00    +0.102 C 
BRANCH  21  22
ATOM     22  C   UNL     1      46.919  48.301  18.965  1.00  0.00    +0.013 C 
BRANCH  22  23
ATOM     23  C   UNL     1      45.646  47.638  18.399  1.00  0.00    -0.017 C 
ATOM     24  C   UNL     1      44.895  48.638  17.516  1.00  0.00    +0.007 C 
ATOM     25  C   UNL     1      44.715  47.123  19.498  1.00  0.00    +0.007 C 
ENDBRANCH  22  23
ENDBRANCH  21  22
ENDBRANCH  18  21
ENDBRANCH   4  17
TORSDOF 8
ENDMDL
MODEL 3
REMARK VINA RESULT:    -7.389      2.051      7.613
REMARK INTER + INTRA:         -11.680
REMARK INTER:                 -10.913
REMARK INTRA:                  -0.767
REMARK UNBOUND:                -0.836
REMARK SMILES CC(C)CCC(=O)NNC(=O)NCCO[C@H]1CCCC[C@H]1C
REMARK SMILES IDX 12 1 10 2 11 3 9 4 13 7 14 8 15 9 16 10 21 11 20 12 19 13
REMARK SMILES IDX 17 14 18 15 22 16 8 17 6 18 7 19 5 21 4 22 2 23 1 24 3 25
REMARK H PARENT 12 5 9 6 8 20
ROOT
ATOM      1  N   UNL     1      51.719  51.676  19.551  1.00  0.00    -0.334 N 
ATOM      2  C   UNL     1      51.105  52.611  20.341  1.00  0.00    +0.333 C 
ATOM      3  O   UNL     1      49.920  52.919  20.268  1.00  0.00    -0.247 OA
ATOM      4  N   UNL     1      51.975  53.169  21.256  1.00  0.00    -0.249 N 
ATOM      5  H   UNL     1      52.560  51.257  19.921  1.00  0.00    +0.165 HD
ATOM      6  H   UNL     1      52.930  53.310  20.928  1.00  0.00    +0.193 HD
ENDROOT
BRANCH   1   7
ATOM      7  C   UNL     1      50.971  50.923  18.563  1.00  0.00    +0.146 C 
BRANCH   7   8
ATOM      8  C   UNL     1      50.274  49.690  19.139  1.00  0.00    +0.182 C 
BRANCH   8   9
ATOM      9  O   UNL     1      48.907  49.699  18.720  1.00  0.00    -0.376 OA
BRANCH   9  10
ATOM     10  C   UNL     1      48.748  49.466  17.312  1.00  0.00    +0.121 C 
ATOM     11  C   UNL     1      47.457  50.167  16.852  1.00  0.00    +0.015 C 
ATOM     12  C   UNL     1      46.219  49.620  17.590  1.00  0.00    +0.006 C 
ATOM     13  C   UNL     1      46.314  48.128  17.917  1.00  0.00    +0.000 C 
ATOM     14  C   UNL     1      48.681  47.953  17.032  1.00  0.00    +0.032 C 
ATOM     15  C   UNL     1      47.254  47.394  16.974  1.00  0.00    +0.003 C 
ATOM     16  C   UNL     1      47.542  51.685  17.022  1.00  0.00    +0.010 C 
ENDBRANCH   9  10
ENDBRANCH   8   9
ENDBRANCH   7   8
ENDBRANCH   1   7
BRANCH   4  17
ATOM     17  N   UNL     1      51.472  54.289  21.970  1.00  0.00    -0.266 N 
ATOM     18  C   UNL     1      51.860  55.531  21.497  1.00  0.00    +0.238 C 
ATOM     19  O   UNL     1      52.781  55.673  20.697  1.00  0.00    -0.273 OA
ATOM     20  H   UNL     1      50.518  54.164  22.309  1.00  0.00    +0.191 HD
BRANCH  18  21
ATOM     21  C   UNL     1      51.064  56.669  22.105  1.00  0.00    +0.102 C 
BRANCH  21  22
ATOM     22  C   UNL     1      50.210  57.429  21.087  1.00  0.00    +0.013 C 
BRANCH  22  23
ATOM     23  C   UNL     1      48.722  57.022  21.055  1.00  0.00    -0.017 C 
ATOM     24  C   UNL     1      48.485  56.027  19.915  1.00  0.00    +0.007 C 
ATOM     25  C   UNL     1      47.789  58.223  20.891  1.00  0.00    +0.007 C 
ENDBRANCH  22  23
ENDBRANCH  21  22
ENDBRANCH  18  21
ENDBRANCH   4  17
TORSDOF 8
ENDMDL
MODEL 4
REMARK VINA RESULT:    -7.323      1.505      7.500
REMARK INTER + INTRA:         -11.583
REMARK INTER:                 -10.777
REMARK INTRA:                  -0.807
REMARK UNBOUND:                -0.836
REMARK SMILES CC(C)CCC(=O)NNC(=O)NCCO[C@H]1CCCC[C@H]1C
REMARK SMILES IDX 12 1 10 2 11 3 9 4 13 7 14 8 15 9 16 10 21 11 20 12 19 13
REMARK SMILES IDX 17 14 18 15 22 16 8 17 6 18 7 19 5 21 4 22 2 23 1 24 3 25
REMARK H PARENT 12 5 9 6 8 20
ROOT
ATOM      1  N   UNL     1      50.859  50.271  16.571  1.00  0.00    -0.334 N 
ATOM      2  C   UNL     1      50.320  50.584  17.790  1.00  0.00    +0.333 C 
ATOM      3  O   UNL     1      49.184  51.015  17.964  1.00  0.00    -0.247 OA
ATOM      4  N   UNL     1      51.202  50.344  18.825  1.00  0.00    -0.249 N 
ATOM      5  H   UNL     1      51.625  49.613  16.574  1.00  0.00    +0.165 HD
ATOM      6  H   UNL     1      52.183  50.538  18.623  1.00  0.00    +0.193 HD
ENDROOT
BRANCH   1   7
ATOM      7  C   UNL     1      50.078  50.390  15.354  1.00  0.00    +0.146 C 
BRANCH   7   8
ATOM      8  C   UNL     1      49.472  49.066  14.890  1.00  0.00    +0.182 C 
BRANCH   8   9
ATOM      9  O   UNL     1      48.094  49.034  15.271  1.00  0.00    -0.376 OA
BRANCH   9  10
ATOM     10  C   UNL     1      47.694  47.775  15.833  1.00  0.00    +0.121 C 
ATOM     11  C   UNL     1      46.172  47.631  15.653  1.00  0.00    +0.015 C 
ATOM     12  C   UNL     1      45.405  48.760  16.368  1.00  0.00    +0.006 C 
ATOM     13  C   UNL     1      46.075  49.228  17.662  1.00  0.00    +0.000 C 
ATOM     14  C   UNL     1      48.079  47.717  17.323  1.00  0.00    +0.032 C 
ATOM     15  C   UNL     1      46.956  48.150  18.273  1.00  0.00    +0.003 C 
ATOM     16  C   UNL     1      45.776  47.578  14.176  1.00  0.00    +0.010 C 
ENDBRANCH   9  10
ENDBRANCH   8   9
ENDBRANCH   7   8
ENDBRANCH   1   7
BRANCH   4  17
ATOM     17  N   UNL     1      50.799  50.834  20.095  1.00  0.00    -0.266 N 
ATOM     18  C   UNL     1      51.548  51.881  20.604  1.00  0.00    +0.238 C 
ATOM     19  O   UNL     1      52.642  52.195  20.141  1.00  0.00    -0.273 OA
ATOM     20  H   UNL     1      49.788  50.836  20.232  1.00  0.00    +0.191 HD
BRANCH  18  21
ATOM     21  C   UNL     1      50.897  52.545  21.802  1.00  0.00    +0.102 C 
BRANCH  21  22
ATOM     22  C   UNL     1      51.581  53.847  22.224  1.00  0.00    +0.013 C 
BRANCH  22  23
ATOM     23  C   UNL     1      51.246  55.071  21.348  1.00  0.00    -0.017 C 
ATOM     24  C   UNL     1      51.215  56.333  22.216  1.00  0.00    +0.007 C 
ATOM     25  C   UNL     1      49.911  54.920  20.615  1.00  0.00    +0.007 C 
ENDBRANCH  22  23
ENDBRANCH  21  22
ENDBRANCH  18  21
ENDBRANCH   4  17
TORSDOF 8
ENDMDL
MODEL 5
REMARK VINA RESULT:    -7.242      1.440      2.028
REMARK INTER + INTRA:         -11.465
REMARK INTER:                 -10.710
REMARK INTRA:                  -0.755
REMARK UNBOUND:                -0.836
REMARK SMILES CC(C)CCC(=O)NNC(=O)NCCO[C@H]1CCCC[C@H]1C
REMARK SMILES IDX 12 1 10 2 11 3 9 4 13 7 14 8 15 9 16 10 21 11 20 12 19 13
REMARK SMILES IDX 17 14 18 15 22 16 8 17 6 18 7 19 5 21 4 22 2 23 1 24 3 25
REMARK H PARENT 12 5 9 6 8 20
ROOT
ATOM      1  N   UNL     1      52.371  51.819  18.436  1.00  0.00    -0.334 N 
ATOM      2  C   UNL     1      51.123  51.425  18.035  1.00  0.00    +0.333 C 
ATOM      3  O   UNL     1      50.219  52.189  17.711  1.00  0.00    -0.247 OA
ATOM      4  N   UNL     1      50.990  50.052  18.021  1.00  0.00    -0.249 N 
ATOM      5  H   UNL     1      53.112  51.140  18.329  1.00  0.00    +0.165 HD
ATOM      6  H   UNL     1      51.481  49.553  18.763  1.00  0.00    +0.193 HD
ENDROOT
BRANCH   1   7
ATOM      7  C   UNL     1      52.743  53.220  18.463  1.00  0.00    +0.146 C 
BRANCH   7   8
ATOM      8  C   UNL     1      52.499  53.888  19.816  1.00  0.00    +0.182 C 
BRANCH   8   9
ATOM      9  O   UNL     1      51.326  54.700  19.722  1.00  0.00    -0.376 OA
BRANCH   9  10
ATOM     10  C   UNL     1      50.494  54.627  20.890  1.00  0.00    +0.121 C 
ATOM     11  C   UNL     1      49.683  55.932  20.985  1.00  0.00    +0.015 C 
ATOM     12  C   UNL     1      50.600  57.164  21.105  1.00  0.00    +0.006 C 
ATOM     13  C   UNL     1      51.885  56.894  21.892  1.00  0.00    +0.000 C 
ATOM     14  C   UNL     1      51.364  54.428  22.145  1.00  0.00    +0.032 C 
ATOM     15  C   UNL     1      51.728  55.734  22.862  1.00  0.00    +0.003 C 
ATOM     16  C   UNL     1      48.731  56.098  19.798  1.00  0.00    +0.010 C 
ENDBRANCH   9  10
ENDBRANCH   8   9
ENDBRANCH   7   8
ENDBRANCH   1   7
BRANCH   4  17
ATOM     17  N   UNL     1      49.671  49.569  17.819  1.00  0.00    -0.266 N 
ATOM     18  C   UNL     1      49.021  49.096  18.947  1.00  0.00    +0.238 C 
ATOM     19  O   UNL     1      49.614  48.850  19.994  1.00  0.00    -0.273 OA
ATOM     20  H   UNL     1      49.140  50.101  17.129  1.00  0.00    +0.191 HD
BRANCH  18  21
ATOM     21  C   UNL     1      47.537  48.877  18.725  1.00  0.00    +0.102 C 
BRANCH  21  22
ATOM     22  C   UNL     1      47.145  48.807  17.247  1.00  0.00    +0.013 C 
BRANCH  22  23
ATOM     23  C   UNL     1      45.631  48.909  16.971  1.00  0.00    -0.017 C 
ATOM     24  C   UNL     1      44.855  48.214  18.094  1.00  0.00    +0.007 C 
ATOM     25  C   UNL     1      45.239  48.302  15.623  1.00  0.00    +0.007 C 
ENDBRANCH  22  23
ENDBRANCH  21  22
ENDBRANCH  18  21
ENDBRANCH   4  17
TORSDOF 8
ENDMDL
