MODEL 1
REMARK VINA RESULT:    -6.048      0.000      0.000
REMARK INTER + INTRA:          -8.616
REMARK INTER:                  -7.993
REMARK INTRA:                  -0.623
REMARK UNBOUND:                -0.623
REMARK SMILES CCN(CC)C(=O)C[NH+]1C[C@@H](O)C[C@@H]1C(N)=O
REMARK SMILES IDX 8 1 6 2 3 3 7 4 2 5 1 6 4 7 5 8 9 9 10 10 14 11 11 12 13 13
REMARK SMILES IDX 15 15 17 16 16 17 12 20
REMARK H PARENT 9 14 16 18 16 19 12 21
ROOT
ATOM      1  C   UNL     1      49.830  51.256  17.743  1.00  0.00    +0.364 C 
ENDROOT
BRANCH   1   2
ATOM      2  C   UNL     1      49.580  50.115  16.743  1.00  0.00    +0.277 C 
ATOM      3  N   UNL     1      48.536  49.237  16.994  1.00  0.00    -0.338 N 
ATOM      4  O   UNL     1      50.303  50.018  15.746  1.00  0.00    -0.268 OA
BRANCH   3   5
ATOM      5  C   UNL     1      48.302  48.141  16.046  1.00  0.00    +0.116 C 
ATOM      6  C   UNL     1      48.678  46.795  16.643  1.00  0.00    +0.027 C 
ENDBRANCH   3   5
BRANCH   3   7
ATOM      7  C   UNL     1      47.619  49.329  18.136  1.00  0.00    +0.116 C 
ATOM      8  C   UNL     1      46.165  49.334  17.691  1.00  0.00    +0.027 C 
ENDBRANCH   3   7
ENDBRANCH   1   2
BRANCH   1   9
ATOM      9  N   UNL     1      50.594  50.810  18.975  1.00  0.00    -0.315 N 
ATOM     10  C   UNL     1      50.483  51.731  20.160  1.00  0.00    +0.295 C 
ATOM     11  C   UNL     1      52.106  50.513  18.824  1.00  0.00    +0.277 C 
ATOM     12  C   UNL     1      51.508  51.118  21.103  1.00  0.00    +0.175 C 
ATOM     13  C   UNL     1      52.702  50.865  20.199  1.00  0.00    +0.113 C 
ATOM     14  H   UNL     1      50.192  49.907  19.275  1.00  0.00    +0.349 HD
BRANCH  11  15
ATOM     15  C   UNL     1      52.773  51.352  17.724  1.00  0.00    +0.275 C 
ATOM     16  O   UNL     1      52.987  52.554  17.862  1.00  0.00    -0.268 OA
ATOM     17  N   UNL     1      53.043  50.713  16.552  1.00  0.00    -0.365 N 
ATOM     18  H   UNL     1      52.549  49.866  16.279  1.00  0.00    +0.159 HD
ATOM     19  H   UNL     1      53.402  51.277  15.787  1.00  0.00    +0.159 HD
ENDBRANCH  11  15
BRANCH  12  20
ATOM     20  O   UNL     1      51.004  49.856  21.551  1.00  0.00    -0.387 OA
ATOM     21  H   UNL     1      51.760  49.336  21.892  1.00  0.00    +0.211 HD
ENDBRANCH  12  20
ENDBRANCH   1   9
TORSDOF 6
ENDMDL
MODEL 2
REMARK VINA RESULT:    -6.021      4.005      6.650
REMARK INTER + INTRA:          -8.580
REMARK INTER:                  -8.070
REMARK INTRA:                  -0.510
REMARK UNBOUND:                -0.623
REMARK SMILES CCN(CC)C(=O)C[NH+]1C[C@@H](O)C[C@@H]1C(N)=O
REMARK SMILES IDX 8 1 6 2 3 3 7 4 2 5 1 6 4 7 5 8 9 9 10 10 14 11 11 12 13 13
REMARK SMILES IDX 15 15 17 16 16 17 12 20
REMARK H PARENT 9 14 16 18 16 19 12 21
ROOT
ATOM      1  C   UNL     1      50.548  54.501  19.323  1.00  0.00    +0.364 C 
ENDROOT
BRANCH   1   2
ATOM      2  C   UNL     1      51.333  55.812  19.501  1.00  0.00    +0.277 C 
ATOM      3  N   UNL     1      50.910  56.705  20.473  1.00  0.00    -0.338 N 
ATOM      4  O   UNL     1      52.317  56.026  18.785  1.00  0.00    -0.268 OA
BRANCH   3   5
ATOM      5  C   UNL     1      51.652  57.961  20.638  1.00  0.00    +0.116 C 
ATOM      6  C   UNL     1      52.689  57.858  21.745  1.00  0.00    +0.027 C 
ENDBRANCH   3   5
BRANCH   3   7
ATOM      7  C   UNL     1      49.778  56.484  21.381  1.00  0.00    +0.116 C 
ATOM      8  C   UNL     1      48.814  57.659  21.373  1.00  0.00    +0.027 C 
ENDBRANCH   3   7
ENDBRANCH   1   2
BRANCH   1   9
ATOM      9  N   UNL     1      51.437  53.317  18.991  1.00  0.00    -0.315 N 
ATOM     10  C   UNL     1      50.720  52.129  18.408  1.00  0.00    +0.295 C 
ATOM     11  C   UNL     1      52.335  52.746  20.115  1.00  0.00    +0.277 C 
ATOM     12  C   UNL     1      51.832  51.090  18.405  1.00  0.00    +0.175 C 
ATOM     13  C   UNL     1      52.456  51.247  19.780  1.00  0.00    +0.113 C 
ATOM     14  H   UNL     1      52.108  53.629  18.270  1.00  0.00    +0.349 HD
BRANCH  11  15
ATOM     15  C   UNL     1      51.731  52.931  21.515  1.00  0.00    +0.275 C 
ATOM     16  O   UNL     1      51.988  53.910  22.211  1.00  0.00    -0.268 OA
ATOM     17  N   UNL     1      50.955  51.913  21.981  1.00  0.00    -0.365 N 
ATOM     18  H   UNL     1      51.035  50.968  21.611  1.00  0.00    +0.159 HD
ATOM     19  H   UNL     1      50.622  51.983  22.938  1.00  0.00    +0.159 HD
ENDBRANCH  11  15
BRANCH  12  20
ATOM     20  O   UNL     1      52.799  51.474  17.423  1.00  0.00    -0.387 OA
ATOM     21  H   UNL     1      52.365  52.091  16.799  1.00  0.00    +0.211 HD
ENDBRANCH  12  20
ENDBRANCH   1   9
TORSDOF 6
ENDMDL
MODEL 3
REMARK VINA RESULT:    -5.878      2.068      2.650
REMARK INTER + INTRA:          -8.391
REMARK INTER:                  -7.607
REMARK INTRA:                  -0.783
REMARK UNBOUND:                -0.623
REMARK SMILES CCN(CC)C(=O)C[NH+]1C[C@@H](O)C[C@@H]1C(N)=O
REMARK SMILES IDX 8 1 6 2 3 3 7 4 2 5 1 6 4 7 5 8 9 9 10 10 14 11 11 12 13 13
REMARK SMILES IDX 15 15 17 16 16 17 12 20
REMARK H PARENT 9 14 16 18 16 19 12 21
ROOT
ATOM      1  C   UNL     1      50.628  50.791  17.953  1.00  0.00    +0.364 C 
ENDROOT
BRANCH   1   2
ATOM      2  C   UNL     1      49.339  49.966  17.797  1.00  0.00    +0.277 C 
ATOM      3  N   UNL     1      48.324  50.475  17.002  1.00  0.00    -0.338 N 
ATOM      4  O   UNL     1      49.249  48.876  18.372  1.00  0.00    -0.268 OA
BRANCH   3   5
ATOM      5  C   UNL     1      47.089  49.693  16.861  1.00  0.00    +0.116 C 
ATOM      6  C   UNL     1      47.048  48.948  15.537  1.00  0.00    +0.027 C 
ENDBRANCH   3   5
BRANCH   3   7
ATOM      7  C   UNL     1      48.391  51.740  16.262  1.00  0.00    +0.116 C 
ATOM      8  C   UNL     1      47.573  52.830  16.934  1.00  0.00    +0.027 C 
ENDBRANCH   3   7
ENDBRANCH   1   2
BRANCH   1   9
ATOM      9  N   UNL     1      50.702  51.532  19.274  1.00  0.00    -0.315 N 
ATOM     10  C   UNL     1      51.485  52.817  19.239  1.00  0.00    +0.295 C 
ATOM     11  C   UNL     1      51.229  50.763  20.510  1.00  0.00    +0.277 C 
ATOM     12  C   UNL     1      51.540  53.166  20.719  1.00  0.00    +0.175 C 
ATOM     13  C   UNL     1      51.905  51.845  21.373  1.00  0.00    +0.113 C 
ATOM     14  H   UNL     1      49.737  51.792  19.536  1.00  0.00    +0.349 HD
BRANCH  11  15
ATOM     15  C   UNL     1      52.241  49.666  20.144  1.00  0.00    +0.275 C 
ATOM     16  O   UNL     1      53.389  49.930  19.796  1.00  0.00    -0.268 OA
ATOM     17  N   UNL     1      51.777  48.386  20.147  1.00  0.00    -0.365 N 
ATOM     18  H   UNL     1      50.785  48.177  20.054  1.00  0.00    +0.159 HD
ATOM     19  H   UNL     1      52.410  47.661  19.822  1.00  0.00    +0.159 HD
ENDBRANCH  11  15
BRANCH  12  20
ATOM     20  O   UNL     1      50.223  53.532  21.141  1.00  0.00    -0.387 OA
ATOM     21  H   UNL     1      49.708  53.769  20.343  1.00  0.00    +0.211 HD
ENDBRANCH  12  20
ENDBRANCH   1   9
TORSDOF 6
ENDMDL
MODEL 4
REMARK VINA RESULT:    -5.790      3.116      5.588
REMARK INTER + INTRA:          -8.275
REMARK INTER:                  -7.741
REMARK INTRA:                  -0.534
REMARK UNBOUND:                -0.623
REMARK SMILES CCN(CC)C(=O)C[NH+]1C[C@@H](O)C[C@@H]1C(N)=O
REMARK SMILES IDX 8 1 6 2 3 3 7 4 2 5 1 6 4 7 5 8 9 9 10 10 14 11 11 12 13 13
REMARK SMILES IDX 15 15 17 16 16 17 12 20
REMARK H PARENT 9 14 16 18 16 19 12 21
ROOT
ATOM      1  C   UNL     1      51.186  53.599  18.866  1.00  0.00    +0.364 C 
ENDROOT
BRANCH   1   2
ATOM      2  C   UNL     1      50.045  54.544  19.280  1.00  0.00    +0.277 C 
ATOM      3  N   UNL     1      50.266  55.420  20.332  1.00  0.00    -0.338 N 
ATOM      4  O   UNL     1      48.976  54.504  18.663  1.00  0.00    -0.268 OA
BRANCH   3   5
ATOM      5  C   UNL     1      49.176  56.316  20.735  1.00  0.00    +0.116 C 
ATOM      6  C   UNL     1      49.694  57.514  21.514  1.00  0.00    +0.027 C 
ENDBRANCH   3   5
BRANCH   3   7
ATOM      7  C   UNL     1      51.527  55.543  21.071  1.00  0.00    +0.116 C 
ATOM      8  C   UNL     1      51.565  54.617  22.277  1.00  0.00    +0.027 C 
ENDBRANCH   3   7
ENDBRANCH   1   2
BRANCH   1   9
ATOM      9  N   UNL     1      51.184  52.292  19.637  1.00  0.00    -0.315 N 
ATOM     10  C   UNL     1      52.545  51.707  19.898  1.00  0.00    +0.295 C 
ATOM     11  C   UNL     1      50.333  51.124  19.082  1.00  0.00    +0.277 C 
ATOM     12  C   UNL     1      52.174  50.346  20.470  1.00  0.00    +0.175 C 
ATOM     13  C   UNL     1      51.090  49.858  19.524  1.00  0.00    +0.113 C 
ATOM     14  H   UNL     1      50.771  52.483  20.564  1.00  0.00    +0.349 HD
BRANCH  11  15
ATOM     15  C   UNL     1      50.197  51.156  17.553  1.00  0.00    +0.275 C 
ATOM     16  O   UNL     1      49.195  51.599  16.997  1.00  0.00    -0.268 OA
ATOM     17  N   UNL     1      51.213  50.594  16.841  1.00  0.00    -0.365 N 
ATOM     18  H   UNL     1      51.839  49.907  17.255  1.00  0.00    +0.159 HD
ATOM     19  H   UNL     1      51.095  50.530  15.834  1.00  0.00    +0.159 HD
ENDBRANCH  11  15
BRANCH  12  20
ATOM     20  O   UNL     1      51.589  50.549  21.760  1.00  0.00    -0.387 OA
ATOM     21  H   UNL     1      51.047  51.363  21.719  1.00  0.00    +0.211 HD
ENDBRANCH  12  20
ENDBRANCH   1   9
TORSDOF 6
ENDMDL
MODEL 5
REMARK VINA RESULT:    -5.523      4.332      6.186
REMARK INTER + INTRA:          -7.922
REMARK INTER:                  -7.168
REMARK INTRA:                  -0.753
REMARK UNBOUND:                -0.623
REMARK SMILES CCN(CC)C(=O)C[NH+]1C[C@@H](O)C[C@@H]1C(N)=O
REMARK SMILES IDX 8 1 6 2 3 3 7 4 2 5 1 6 4 7 5 8 9 9 10 10 14 11 11 12 13 13
REMARK SMILES IDX 15 15 17 16 16 17 12 20
REMARK H PARENT 9 14 16 18 16 19 12 21
ROOT
ATOM      1  C   UNL     1      51.875  54.572  20.136  1.00  0.00    +0.364 C 
ENDROOT
BRANCH   1   2
ATOM      2  C   UNL     1      51.896  53.187  20.805  1.00  0.00    +0.277 C 
ATOM      3  N   UNL     1      51.837  52.064  19.993  1.00  0.00    -0.338 N 
ATOM      4  O   UNL     1      51.974  53.113  22.036  1.00  0.00    -0.268 OA
BRANCH   3   5
ATOM      5  C   UNL     1      51.847  50.741  20.630  1.00  0.00    +0.116 C 
ATOM      6  C   UNL     1      52.679  49.745  19.839  1.00  0.00    +0.027 C 
ENDBRANCH   3   5
BRANCH   3   7
ATOM      7  C   UNL     1      51.787  52.090  18.527  1.00  0.00    +0.116 C 
ATOM      8  C   UNL     1      50.361  51.994  18.010  1.00  0.00    +0.027 C 
ENDBRANCH   3   7
ENDBRANCH   1   2
BRANCH   1   9
ATOM      9  N   UNL     1      50.534  55.271  20.261  1.00  0.00    -0.315 N 
ATOM     10  C   UNL     1      50.194  56.199  19.126  1.00  0.00    +0.295 C 
ATOM     11  C   UNL     1      50.254  56.079  21.551  1.00  0.00    +0.277 C 
ATOM     12  C   UNL     1      48.939  56.870  19.664  1.00  0.00    +0.175 C 
ATOM     13  C   UNL     1      49.316  57.212  21.095  1.00  0.00    +0.113 C 
ATOM     14  H   UNL     1      49.805  54.539  20.262  1.00  0.00    +0.349 HD
BRANCH  11  15
ATOM     15  C   UNL     1      51.528  56.664  22.178  1.00  0.00    +0.275 C 
ATOM     16  O   UNL     1      52.100  57.641  21.701  1.00  0.00    -0.268 OA
ATOM     17  N   UNL     1      52.041  55.996  23.249  1.00  0.00    -0.365 N 
ATOM     18  H   UNL     1      51.825  55.015  23.419  1.00  0.00    +0.159 HD
ATOM     19  H   UNL     1      52.930  56.320  23.618  1.00  0.00    +0.159 HD
ENDBRANCH  11  15
BRANCH  12  20
ATOM     20  O   UNL     1      47.890  55.898  19.692  1.00  0.00    -0.387 OA
ATOM     21  H   UNL     1      48.288  55.022  19.515  1.00  0.00    +0.211 HD
ENDBRANCH  12  20
ENDBRANCH   1   9
TORSDOF 6
ENDMDL
