MODEL 1
REMARK VINA RESULT:    -9.534      0.000      0.000
REMARK INTER + INTRA:         -12.373
REMARK INTER:                 -11.763
REMARK INTRA:                  -0.610
REMARK UNBOUND:                -0.610
REMARK SMILES C#Cc1cccc(NC(=S)NNC(=O)/C=C/c2ccccc2C#N)c1
REMARK SMILES IDX 8 1 9 2 10 3 11 4 7 7 2 8 3 9 4 10 25 11 5 12 6 13 1 14
REMARK SMILES IDX 12 15 13 16 14 17 15 19 16 20 17 21 18 22 22 23 19 24 21 25
REMARK SMILES IDX 23 26 20 27 24 28
REMARK H PARENT 8 5 11 6 12 18
ROOT
ATOM      1  N   UNL     1      49.651  49.322  16.434  1.00  0.00    -0.331 N 
ATOM      2  C   UNL     1      49.749  50.398  17.270  1.00  0.00    +0.189 C 
ATOM      3  S   UNL     1      51.285  50.931  17.681  1.00  0.00    -0.039 S 
ATOM      4  N   UNL     1      48.584  50.986  17.694  1.00  0.00    -0.274 N 
ATOM      5  H   UNL     1      50.539  49.088  16.000  1.00  0.00    +0.169 HD
ATOM      6  H   UNL     1      47.788  50.922  17.055  1.00  0.00    +0.190 HD
ENDROOT
BRANCH   1   7
ATOM      7  C   UNL     1      48.575  48.467  16.121  1.00  0.00    +0.041 A 
ATOM      8  C   UNL     1      46.035  48.281  13.384  1.00  0.00    -0.070 C 
ATOM      9  C   UNL     1      46.774  47.958  14.565  1.00  0.00    +0.026 A 
ATOM     10  C   UNL     1      46.424  46.844  15.325  1.00  0.00    +0.017 A 
ATOM     11  C   UNL     1      47.851  48.759  14.957  1.00  0.00    +0.043 A 
ATOM     12  C   UNL     1      47.157  46.527  16.467  1.00  0.00    +0.003 A 
ATOM     13  C   UNL     1      48.233  47.330  16.859  1.00  0.00    +0.026 A 
ATOM     14  C   UNL     1      45.414  48.552  12.392  1.00  0.00    +0.010 C 
ENDBRANCH   1   7
BRANCH   4  15
ATOM     15  N   UNL     1      48.620  52.205  18.404  1.00  0.00    -0.264 N 
ATOM     16  C   UNL     1      48.531  53.364  17.669  1.00  0.00    +0.262 C 
ATOM     17  O   UNL     1      48.295  53.389  16.464  1.00  0.00    -0.268 OA
ATOM     18  H   UNL     1      49.078  52.181  19.314  1.00  0.00    +0.191 HD
BRANCH  16  19
ATOM     19  C   UNL     1      48.815  54.619  18.403  1.00  0.00    +0.073 C 
ATOM     20  C   UNL     1      48.704  54.743  19.735  1.00  0.00    +0.015 C 
BRANCH  20  21
ATOM     21  C   UNL     1      48.957  56.015  20.438  1.00  0.00    -0.008 A 
ATOM     22  C   UNL     1      48.010  57.051  20.363  1.00  0.00    +0.009 A 
ATOM     23  C   UNL     1      50.108  56.207  21.226  1.00  0.00    +0.059 A 
ATOM     24  C   UNL     1      48.214  58.257  21.037  1.00  0.00    +0.001 A 
ATOM     25  C   UNL     1      50.305  57.423  21.899  1.00  0.00    +0.020 A 
ATOM     26  C   UNL     1      51.107  55.185  21.354  1.00  0.00    +0.100 C 
ATOM     27  C   UNL     1      49.361  58.444  21.803  1.00  0.00    +0.001 A 
ATOM     28  N   UNL     1      51.906  54.350  21.461  1.00  0.00    -0.192 NA
ENDBRANCH  20  21
ENDBRANCH  16  19
ENDBRANCH   4  15
TORSDOF 4
ENDMDL
MODEL 2
REMARK VINA RESULT:    -9.248      1.610      9.088
REMARK INTER + INTRA:         -12.021
REMARK INTER:                 -12.111
REMARK INTRA:                   0.090
REMARK UNBOUND:                -0.610
REMARK SMILES C#Cc1cccc(NC(=S)NNC(=O)/C=C/c2ccccc2C#N)c1
REMARK SMILES IDX 8 1 9 2 10 3 11 4 7 7 2 8 3 9 4 10 25 11 5 12 6 13 1 14
REMARK SMILES IDX 12 15 13 16 14 17 15 19 16 20 17 21 18 22 22 23 19 24 21 25
REMARK SMILES IDX 23 26 20 27 24 28
REMARK H PARENT 8 5 11 6 12 18
ROOT
ATOM      1  N   UNL     1      51.572  53.802  21.132  1.00  0.00    -0.331 N 
ATOM      2  C   UNL     1      51.117  52.903  20.211  1.00  0.00    +0.189 C 
ATOM      3  S   UNL     1      51.851  51.395  20.162  1.00  0.00    -0.039 S 
ATOM      4  N   UNL     1      50.073  53.284  19.406  1.00  0.00    -0.274 N 
ATOM      5  H   UNL     1      52.185  53.375  21.821  1.00  0.00    +0.169 HD
ATOM      6  H   UNL     1      49.419  53.959  19.808  1.00  0.00    +0.190 HD
ENDROOT
BRANCH   1   7
ATOM      7  C   UNL     1      51.391  55.195  21.259  1.00  0.00    +0.041 A 
ATOM      8  C   UNL     1      48.505  57.545  20.900  1.00  0.00    -0.070 C 
ATOM      9  C   UNL     1      49.826  57.056  21.149  1.00  0.00    +0.026 A 
ATOM     10  C   UNL     1      50.842  57.939  21.507  1.00  0.00    +0.017 A 
ATOM     11  C   UNL     1      50.098  55.688  21.035  1.00  0.00    +0.043 A 
ATOM     12  C   UNL     1      52.123  57.454  21.762  1.00  0.00    +0.003 A 
ATOM     13  C   UNL     1      52.395  56.086  21.647  1.00  0.00    +0.026 A 
ATOM     14  C   UNL     1      47.396  57.956  20.691  1.00  0.00    +0.010 C 
ENDBRANCH   1   7
BRANCH   4  15
ATOM     15  N   UNL     1      49.441  52.341  18.568  1.00  0.00    -0.264 N 
ATOM     16  C   UNL     1      48.542  52.822  17.644  1.00  0.00    +0.262 C 
ATOM     17  O   UNL     1      48.363  54.018  17.428  1.00  0.00    -0.268 OA
ATOM     18  H   UNL     1      49.382  51.389  18.927  1.00  0.00    +0.191 HD
BRANCH  16  19
ATOM     19  C   UNL     1      47.719  51.804  16.951  1.00  0.00    +0.073 C 
ATOM     20  C   UNL     1      47.641  50.521  17.338  1.00  0.00    +0.015 C 
BRANCH  20  21
ATOM     21  C   UNL     1      46.843  49.519  16.607  1.00  0.00    -0.008 A 
ATOM     22  C   UNL     1      45.600  49.110  17.119  1.00  0.00    +0.009 A 
ATOM     23  C   UNL     1      47.274  48.987  15.376  1.00  0.00    +0.059 A 
ATOM     24  C   UNL     1      44.815  48.180  16.436  1.00  0.00    +0.001 A 
ATOM     25  C   UNL     1      46.479  48.052  14.696  1.00  0.00    +0.020 A 
ATOM     26  C   UNL     1      48.527  49.371  14.792  1.00  0.00    +0.100 C 
ATOM     27  C   UNL     1      45.254  47.649  15.227  1.00  0.00    +0.001 A 
ATOM     28  N   UNL     1      49.538  49.694  14.320  1.00  0.00    -0.192 NA
ENDBRANCH  20  21
ENDBRANCH  16  19
ENDBRANCH   4  15
TORSDOF 4
ENDMDL
MODEL 3
REMARK VINA RESULT:    -8.931      4.803     10.004
REMARK INTER + INTRA:         -11.630
REMARK INTER:                 -11.116
REMARK INTRA:                  -0.514
REMARK UNBOUND:                -0.610
REMARK SMILES C#Cc1cccc(NC(=S)NNC(=O)/C=C/c2ccccc2C#N)c1
REMARK SMILES IDX 8 1 9 2 10 3 11 4 7 7 2 8 3 9 4 10 25 11 5 12 6 13 1 14
REMARK SMILES IDX 12 15 13 16 14 17 15 19 16 20 17 21 18 22 22 23 19 24 21 25
REMARK SMILES IDX 23 26 20 27 24 28
REMARK H PARENT 8 5 11 6 12 18
ROOT
ATOM      1  N   UNL     1      46.730  59.974  17.366  1.00  0.00    -0.331 N 
ATOM      2  C   UNL     1      47.182  58.718  17.652  1.00  0.00    +0.189 C 
ATOM      3  S   UNL     1      47.307  57.626  16.384  1.00  0.00    -0.039 S 
ATOM      4  N   UNL     1      47.530  58.443  18.950  1.00  0.00    -0.274 N 
ATOM      5  H   UNL     1      46.704  60.159  16.367  1.00  0.00    +0.169 HD
ATOM      6  H   UNL     1      47.872  59.233  19.501  1.00  0.00    +0.190 HD
ENDROOT
BRANCH   1   7
ATOM      7  C   UNL     1      46.249  61.013  18.190  1.00  0.00    +0.041 A 
ATOM      8  C   UNL     1      42.875  62.347  19.092  1.00  0.00    -0.070 C 
ATOM      9  C   UNL     1      44.295  62.179  19.053  1.00  0.00    +0.026 A 
ATOM     10  C   UNL     1      45.118  63.009  19.811  1.00  0.00    +0.017 A 
ATOM     11  C   UNL     1      44.860  61.180  18.253  1.00  0.00    +0.043 A 
ATOM     12  C   UNL     1      46.500  62.831  19.779  1.00  0.00    +0.003 A 
ATOM     13  C   UNL     1      47.063  61.832  18.978  1.00  0.00    +0.026 A 
ATOM     14  C   UNL     1      41.683  62.489  19.125  1.00  0.00    +0.010 C 
ENDBRANCH   1   7
BRANCH   4  15
ATOM     15  N   UNL     1      48.175  57.230  19.272  1.00  0.00    -0.264 N 
ATOM     16  C   UNL     1      48.736  57.129  20.524  1.00  0.00    +0.262 C 
ATOM     17  O   UNL     1      48.594  57.973  21.404  1.00  0.00    -0.268 OA
ATOM     18  H   UNL     1      48.518  56.682  18.485  1.00  0.00    +0.191 HD
BRANCH  16  19
ATOM     19  C   UNL     1      49.610  55.953  20.747  1.00  0.00    +0.073 C 
ATOM     20  C   UNL     1      49.392  54.749  20.196  1.00  0.00    +0.015 C 
BRANCH  20  21
ATOM     21  C   UNL     1      50.257  53.584  20.465  1.00  0.00    -0.008 A 
ATOM     22  C   UNL     1      50.951  53.500  21.683  1.00  0.00    +0.009 A 
ATOM     23  C   UNL     1      50.372  52.523  19.546  1.00  0.00    +0.059 A 
ATOM     24  C   UNL     1      51.758  52.397  21.973  1.00  0.00    +0.001 A 
ATOM     25  C   UNL     1      51.187  51.419  19.844  1.00  0.00    +0.020 A 
ATOM     26  C   UNL     1      49.681  52.541  18.289  1.00  0.00    +0.100 C 
ATOM     27  C   UNL     1      51.878  51.359  21.054  1.00  0.00    +0.001 A 
ATOM     28  N   UNL     1      49.110  52.559  17.278  1.00  0.00    -0.192 NA
ENDBRANCH  20  21
ENDBRANCH  16  19
ENDBRANCH   4  15
TORSDOF 4
ENDMDL
MODEL 4
REMARK VINA RESULT:    -8.817      2.647      3.675
REMARK INTER + INTRA:         -11.489
REMARK INTER:                 -10.907
REMARK INTRA:                  -0.581
REMARK UNBOUND:                -0.610
REMARK SMILES C#Cc1cccc(NC(=S)NNC(=O)/C=C/c2ccccc2C#N)c1
REMARK SMILES IDX 8 1 9 2 10 3 11 4 7 7 2 8 3 9 4 10 25 11 5 12 6 13 1 14
REMARK SMILES IDX 12 15 13 16 14 17 15 19 16 20 17 21 18 22 22 23 19 24 21 25
REMARK SMILES IDX 23 26 20 27 24 28
REMARK H PARENT 8 5 11 6 12 18
ROOT
ATOM      1  N   UNL     1      47.223  51.504  16.779  1.00  0.00    -0.331 N 
ATOM      2  C   UNL     1      48.152  52.463  17.066  1.00  0.00    +0.189 C 
ATOM      3  S   UNL     1      47.888  54.009  16.472  1.00  0.00    -0.039 S 
ATOM      4  N   UNL     1      49.224  52.102  17.843  1.00  0.00    -0.274 N 
ATOM      5  H   UNL     1      46.369  51.896  16.393  1.00  0.00    +0.169 HD
ATOM      6  H   UNL     1      49.059  51.351  18.517  1.00  0.00    +0.190 HD
ENDROOT
BRANCH   1   7
ATOM      7  C   UNL     1      47.261  50.097  16.868  1.00  0.00    +0.041 A 
ATOM      8  C   UNL     1      45.395  47.504  18.809  1.00  0.00    -0.070 C 
ATOM      9  C   UNL     1      46.315  48.102  17.893  1.00  0.00    +0.026 A 
ATOM     10  C   UNL     1      47.174  47.302  17.142  1.00  0.00    +0.017 A 
ATOM     11  C   UNL     1      46.354  49.493  17.749  1.00  0.00    +0.043 A 
ATOM     12  C   UNL     1      48.059  47.892  16.241  1.00  0.00    +0.003 A 
ATOM     13  C   UNL     1      48.096  49.283  16.098  1.00  0.00    +0.026 A 
ATOM     14  C   UNL     1      44.622  47.000  19.578  1.00  0.00    +0.010 C 
ENDBRANCH   1   7
BRANCH   4  15
ATOM     15  N   UNL     1      50.115  53.085  18.326  1.00  0.00    -0.264 N 
ATOM     16  C   UNL     1      50.684  52.867  19.558  1.00  0.00    +0.262 C 
ATOM     17  O   UNL     1      50.561  51.821  20.190  1.00  0.00    -0.268 OA
ATOM     18  H   UNL     1      49.994  54.023  17.949  1.00  0.00    +0.191 HD
BRANCH  16  19
ATOM     19  C   UNL     1      51.416  54.014  20.144  1.00  0.00    +0.073 C 
ATOM     20  C   UNL     1      51.153  55.296  19.845  1.00  0.00    +0.015 C 
BRANCH  20  21
ATOM     21  C   UNL     1      51.922  56.418  20.414  1.00  0.00    -0.008 A 
ATOM     22  C   UNL     1      53.314  56.472  20.231  1.00  0.00    +0.009 A 
ATOM     23  C   UNL     1      51.291  57.471  21.104  1.00  0.00    +0.059 A 
ATOM     24  C   UNL     1      54.063  57.535  20.740  1.00  0.00    +0.001 A 
ATOM     25  C   UNL     1      52.051  58.536  21.613  1.00  0.00    +0.020 A 
ATOM     26  C   UNL     1      49.871  57.484  21.315  1.00  0.00    +0.100 C 
ATOM     27  C   UNL     1      53.434  58.565  21.432  1.00  0.00    +0.001 A 
ATOM     28  N   UNL     1      48.721  57.492  21.474  1.00  0.00    -0.192 NA
ENDBRANCH  20  21
ENDBRANCH  16  19
ENDBRANCH   4  15
TORSDOF 4
ENDMDL
MODEL 5
REMARK VINA RESULT:    -8.667      2.087      9.222
REMARK INTER + INTRA:         -11.304
REMARK INTER:                 -10.740
REMARK INTRA:                  -0.564
REMARK UNBOUND:                -0.610
REMARK SMILES C#Cc1cccc(NC(=S)NNC(=O)/C=C/c2ccccc2C#N)c1
REMARK SMILES IDX 8 1 9 2 10 3 11 4 7 7 2 8 3 9 4 10 25 11 5 12 6 13 1 14
REMARK SMILES IDX 12 15 13 16 14 17 15 19 16 20 17 21 18 22 22 23 19 24 21 25
REMARK SMILES IDX 23 26 20 27 24 28
REMARK H PARENT 8 5 11 6 12 18
ROOT
ATOM      1  N   UNL     1      50.892  52.238  20.504  1.00  0.00    -0.331 N 
ATOM      2  C   UNL     1      50.543  51.231  19.651  1.00  0.00    +0.189 C 
ATOM      3  S   UNL     1      50.809  49.653  20.156  1.00  0.00    -0.039 S 
ATOM      4  N   UNL     1      49.974  51.576  18.452  1.00  0.00    -0.274 N 
ATOM      5  H   UNL     1      51.098  51.900  21.440  1.00  0.00    +0.169 HD
ATOM      6  H   UNL     1      49.435  52.445  18.443  1.00  0.00    +0.190 HD
ENDROOT
BRANCH   1   7
ATOM      7  C   UNL     1      51.067  53.623  20.305  1.00  0.00    +0.041 A 
ATOM      8  C   UNL     1      48.856  56.634  20.466  1.00  0.00    -0.070 C 
ATOM      9  C   UNL     1      50.023  55.822  20.307  1.00  0.00    +0.026 A 
ATOM     10  C   UNL     1      51.245  56.409  19.986  1.00  0.00    +0.017 A 
ATOM     11  C   UNL     1      49.938  54.436  20.475  1.00  0.00    +0.043 A 
ATOM     12  C   UNL     1      52.380  55.613  19.846  1.00  0.00    +0.003 A 
ATOM     13  C   UNL     1      52.294  54.227  20.013  1.00  0.00    +0.026 A 
ATOM     14  C   UNL     1      47.877  57.317  20.599  1.00  0.00    +0.010 C 
ENDBRANCH   1   7
BRANCH   4  15
ATOM     15  N   UNL     1      49.426  50.583  17.612  1.00  0.00    -0.264 N 
ATOM     16  C   UNL     1      48.374  50.951  16.807  1.00  0.00    +0.262 C 
ATOM     17  O   UNL     1      47.980  52.108  16.686  1.00  0.00    -0.268 OA
ATOM     18  H   UNL     1      49.560  49.619  17.912  1.00  0.00    +0.191 HD
BRANCH  16  19
ATOM     19  C   UNL     1      47.665  49.844  16.123  1.00  0.00    +0.073 C 
ATOM     20  C   UNL     1      46.464  49.380  16.506  1.00  0.00    +0.015 C 
BRANCH  20  21
ATOM     21  C   UNL     1      45.797  48.251  15.831  1.00  0.00    -0.008 A 
ATOM     22  C   UNL     1      45.891  48.121  14.435  1.00  0.00    +0.009 A 
ATOM     23  C   UNL     1      45.100  47.266  16.556  1.00  0.00    +0.059 A 
ATOM     24  C   UNL     1      45.288  47.049  13.774  1.00  0.00    +0.001 A 
ATOM     25  C   UNL     1      44.496  46.192  15.883  1.00  0.00    +0.020 A 
ATOM     26  C   UNL     1      44.977  47.333  17.984  1.00  0.00    +0.100 C 
ATOM     27  C   UNL     1      44.589  46.087  14.496  1.00  0.00    +0.001 A 
ATOM     28  N   UNL     1      44.890  47.388  19.141  1.00  0.00    -0.192 NA
ENDBRANCH  20  21
ENDBRANCH  16  19
ENDBRANCH   4  15
TORSDOF 4
ENDMDL
