MODEL 1
REMARK VINA RESULT:    -6.836      0.000      0.000
REMARK INTER + INTRA:         -10.629
REMARK INTER:                 -10.034
REMARK INTRA:                  -0.595
REMARK UNBOUND:                -0.595
REMARK SMILES CC[C@H](C)[C@H](NC(=O)OC(C)(C)C)C(=O)NCC(N)=O
REMARK SMILES IDX 5 1 3 2 4 3 2 4 1 5 14 6 15 7 16 8 17 10 18 11 20 12 19 13
REMARK SMILES IDX 6 16 7 17 8 18 9 20 10 21 11 22 12 23 13 24
REMARK H PARENT 16 9 19 14 19 15 6 19
ROOT
ATOM      1  C   UNL     1      50.229  53.759  18.549  1.00  0.00    +0.177 C 
ENDROOT
BRANCH   1   2
ATOM      2  C   UNL     1      50.163  54.518  19.899  1.00  0.00    +0.018 C 
ATOM      3  C   UNL     1      48.832  55.275  20.016  1.00  0.00    +0.010 C 
BRANCH   2   4
ATOM      4  C   UNL     1      50.344  53.545  21.088  1.00  0.00    +0.002 C 
ATOM      5  C   UNL     1      51.505  53.903  22.005  1.00  0.00    +0.004 C 
ENDBRANCH   2   4
ENDBRANCH   1   2
BRANCH   1   6
ATOM      6  C   UNL     1      51.536  52.945  18.391  1.00  0.00    +0.243 C 
ATOM      7  O   UNL     1      52.651  53.459  18.369  1.00  0.00    -0.273 OA
ATOM      8  N   UNL     1      51.336  51.577  18.368  1.00  0.00    -0.345 N 
ATOM      9  H   UNL     1      50.459  51.249  18.773  1.00  0.00    +0.164 HD
BRANCH   8  10
ATOM     10  C   UNL     1      52.469  50.669  18.461  1.00  0.00    +0.215 C 
BRANCH  10  11
ATOM     11  C   UNL     1      52.665  50.119  19.872  1.00  0.00    +0.236 C 
ATOM     12  O   UNL     1      52.855  50.830  20.853  1.00  0.00    -0.273 OA
ATOM     13  N   UNL     1      52.687  48.757  19.984  1.00  0.00    -0.368 N 
ATOM     14  H   UNL     1      52.833  48.196  19.156  1.00  0.00    +0.159 HD
ATOM     15  H   UNL     1      52.967  48.378  20.878  1.00  0.00    +0.159 HD
ENDBRANCH  10  11
ENDBRANCH   8  10
ENDBRANCH   1   6
BRANCH   1  16
ATOM     16  N   UNL     1      49.147  52.787  18.424  1.00  0.00    -0.309 N 
ATOM     17  C   UNL     1      48.325  52.767  17.340  1.00  0.00    +0.408 C 
ATOM     18  O   UNL     1      48.358  53.597  16.444  1.00  0.00    -0.225 OA
ATOM     19  H   UNL     1      49.198  51.919  18.941  1.00  0.00    +0.167 HD
BRANCH  17  20
ATOM     20  O   UNL     1      47.535  51.677  17.404  1.00  0.00    -0.444 OA
BRANCH  20  21
ATOM     21  C   UNL     1      48.022  50.383  16.965  1.00  0.00    +0.106 C 
ATOM     22  C   UNL     1      46.784  49.672  16.399  1.00  0.00    +0.056 C 
ATOM     23  C   UNL     1      48.562  49.565  18.144  1.00  0.00    +0.056 C 
ATOM     24  C   UNL     1      49.056  50.531  15.845  1.00  0.00    +0.056 C 
ENDBRANCH  20  21
ENDBRANCH  17  20
ENDBRANCH   1  16
TORSDOF 8
ENDMDL
MODEL 2
REMARK VINA RESULT:    -6.585      2.715      4.415
REMARK INTER + INTRA:         -10.260
REMARK INTER:                  -9.890
REMARK INTRA:                  -0.370
REMARK UNBOUND:                -0.595
REMARK SMILES CC[C@H](C)[C@H](NC(=O)OC(C)(C)C)C(=O)NCC(N)=O
REMARK SMILES IDX 5 1 3 2 4 3 2 4 1 5 14 6 15 7 16 8 17 10 18 11 20 12 19 13
REMARK SMILES IDX 6 16 7 17 8 18 9 20 10 21 11 22 12 23 13 24
REMARK H PARENT 16 9 19 14 19 15 6 19
ROOT
ATOM      1  C   UNL     1      49.321  49.772  16.830  1.00  0.00    +0.177 C 
ENDROOT
BRANCH   1   2
ATOM      2  C   UNL     1      48.829  50.847  15.827  1.00  0.00    +0.018 C 
ATOM      3  C   UNL     1      48.417  50.187  14.503  1.00  0.00    +0.010 C 
BRANCH   2   4
ATOM      4  C   UNL     1      47.653  51.659  16.421  1.00  0.00    +0.002 C 
ATOM      5  C   UNL     1      47.918  53.156  16.500  1.00  0.00    +0.004 C 
ENDBRANCH   2   4
ENDBRANCH   1   2
BRANCH   1   6
ATOM      6  C   UNL     1      50.217  50.367  17.943  1.00  0.00    +0.243 C 
ATOM      7  O   UNL     1      50.740  51.474  17.866  1.00  0.00    -0.273 OA
ATOM      8  N   UNL     1      50.300  49.570  19.071  1.00  0.00    -0.345 N 
ATOM      9  H   UNL     1      49.548  48.891  19.191  1.00  0.00    +0.164 HD
BRANCH   8  10
ATOM     10  C   UNL     1      50.905  50.086  20.289  1.00  0.00    +0.215 C 
BRANCH  10  11
ATOM     11  C   UNL     1      52.430  50.011  20.262  1.00  0.00    +0.236 C 
ATOM     12  O   UNL     1      53.158  50.962  20.526  1.00  0.00    -0.273 OA
ATOM     13  N   UNL     1      52.962  48.820  19.852  1.00  0.00    -0.368 N 
ATOM     14  H   UNL     1      52.375  48.162  19.358  1.00  0.00    +0.159 HD
ATOM     15  H   UNL     1      53.958  48.801  19.681  1.00  0.00    +0.159 HD
ENDBRANCH  10  11
ENDBRANCH   8  10
ENDBRANCH   1   6
BRANCH   1  16
ATOM     16  N   UNL     1      48.207  49.135  17.526  1.00  0.00    -0.309 N 
ATOM     17  C   UNL     1      47.783  47.882  17.203  1.00  0.00    +0.408 C 
ATOM     18  O   UNL     1      48.225  47.234  16.266  1.00  0.00    -0.225 OA
ATOM     19  H   UNL     1      47.960  49.445  18.457  1.00  0.00    +0.167 HD
BRANCH  17  20
ATOM     20  O   UNL     1      46.864  47.481  18.103  1.00  0.00    -0.444 OA
BRANCH  20  21
ATOM     21  C   UNL     1      45.450  47.706  17.867  1.00  0.00    +0.106 C 
ATOM     22  C   UNL     1      45.098  46.780  16.693  1.00  0.00    +0.056 C 
ATOM     23  C   UNL     1      45.182  49.155  17.446  1.00  0.00    +0.056 C 
ATOM     24  C   UNL     1      44.613  47.294  19.082  1.00  0.00    +0.056 C 
ENDBRANCH  20  21
ENDBRANCH  17  20
ENDBRANCH   1  16
TORSDOF 8
ENDMDL
MODEL 3
REMARK VINA RESULT:    -6.514      3.572      5.131
REMARK INTER + INTRA:         -10.155
REMARK INTER:                 -10.046
REMARK INTRA:                  -0.109
REMARK UNBOUND:                -0.595
REMARK SMILES CC[C@H](C)[C@H](NC(=O)OC(C)(C)C)C(=O)NCC(N)=O
REMARK SMILES IDX 5 1 3 2 4 3 2 4 1 5 14 6 15 7 16 8 17 10 18 11 20 12 19 13
REMARK SMILES IDX 6 16 7 17 8 18 9 20 10 21 11 22 12 23 13 24
REMARK H PARENT 16 9 19 14 19 15 6 19
ROOT
ATOM      1  C   UNL     1      50.195  55.620  20.246  1.00  0.00    +0.177 C 
ENDROOT
BRANCH   1   2
ATOM      2  C   UNL     1      49.079  56.383  21.004  1.00  0.00    +0.018 C 
ATOM      3  C   UNL     1      49.673  57.592  21.743  1.00  0.00    +0.010 C 
BRANCH   2   4
ATOM      4  C   UNL     1      47.961  56.832  20.034  1.00  0.00    +0.002 C 
ATOM      5  C   UNL     1      47.203  58.069  20.500  1.00  0.00    +0.004 C 
ENDBRANCH   2   4
ENDBRANCH   1   2
BRANCH   1   6
ATOM      6  C   UNL     1      51.601  55.886  20.838  1.00  0.00    +0.243 C 
ATOM      7  O   UNL     1      52.107  55.188  21.710  1.00  0.00    -0.273 OA
ATOM      8  N   UNL     1      52.269  56.932  20.227  1.00  0.00    -0.345 N 
ATOM      9  H   UNL     1      51.943  57.183  19.293  1.00  0.00    +0.164 HD
BRANCH   8  10
ATOM     10  C   UNL     1      53.679  57.161  20.501  1.00  0.00    +0.215 C 
BRANCH  10  11
ATOM     11  C   UNL     1      53.906  57.911  21.812  1.00  0.00    +0.236 C 
ATOM     12  O   UNL     1      54.815  57.647  22.592  1.00  0.00    -0.273 OA
ATOM     13  N   UNL     1      52.984  58.873  22.117  1.00  0.00    -0.368 N 
ATOM     14  H   UNL     1      52.095  58.874  21.634  1.00  0.00    +0.159 HD
ATOM     15  H   UNL     1      53.029  59.270  23.045  1.00  0.00    +0.159 HD
ENDBRANCH  10  11
ENDBRANCH   8  10
ENDBRANCH   1   6
BRANCH   1  16
ATOM     16  N   UNL     1      50.008  54.174  20.322  1.00  0.00    -0.309 N 
ATOM     17  C   UNL     1      50.025  53.390  19.210  1.00  0.00    +0.408 C 
ATOM     18  O   UNL     1      50.103  53.825  18.071  1.00  0.00    -0.225 OA
ATOM     19  H   UNL     1      50.206  53.693  21.190  1.00  0.00    +0.167 HD
BRANCH  17  20
ATOM     20  O   UNL     1      49.996  52.095  19.582  1.00  0.00    -0.444 OA
BRANCH  20  21
ATOM     21  C   UNL     1      51.189  51.274  19.496  1.00  0.00    +0.106 C 
ATOM     22  C   UNL     1      50.811  49.961  20.197  1.00  0.00    +0.056 C 
ATOM     23  C   UNL     1      52.359  51.914  20.251  1.00  0.00    +0.056 C 
ATOM     24  C   UNL     1      51.545  50.965  18.038  1.00  0.00    +0.056 C 
ENDBRANCH  20  21
ENDBRANCH  17  20
ENDBRANCH   1  16
TORSDOF 8
ENDMDL
MODEL 4
REMARK VINA RESULT:    -6.395      2.493      4.728
REMARK INTER + INTRA:          -9.980
REMARK INTER:                  -9.423
REMARK INTRA:                  -0.558
REMARK UNBOUND:                -0.595
REMARK SMILES CC[C@H](C)[C@H](NC(=O)OC(C)(C)C)C(=O)NCC(N)=O
REMARK SMILES IDX 5 1 3 2 4 3 2 4 1 5 14 6 15 7 16 8 17 10 18 11 20 12 19 13
REMARK SMILES IDX 6 16 7 17 8 18 9 20 10 21 11 22 12 23 13 24
REMARK H PARENT 16 9 19 14 19 15 6 19
ROOT
ATOM      1  C   UNL     1      49.641  50.210  17.139  1.00  0.00    +0.177 C 
ENDROOT
BRANCH   1   2
ATOM      2  C   UNL     1      49.448  50.514  15.632  1.00  0.00    +0.018 C 
ATOM      3  C   UNL     1      50.303  49.559  14.785  1.00  0.00    +0.010 C 
BRANCH   2   4
ATOM      4  C   UNL     1      47.957  50.409  15.234  1.00  0.00    +0.002 C 
ATOM      5  C   UNL     1      47.636  49.199  14.366  1.00  0.00    +0.004 C 
ENDBRANCH   2   4
ENDBRANCH   1   2
BRANCH   1   6
ATOM      6  C   UNL     1      50.032  51.468  17.952  1.00  0.00    +0.243 C 
ATOM      7  O   UNL     1      49.341  52.481  17.997  1.00  0.00    -0.273 OA
ATOM      8  N   UNL     1      51.189  51.310  18.694  1.00  0.00    -0.345 N 
ATOM      9  H   UNL     1      51.461  50.347  18.893  1.00  0.00    +0.164 HD
BRANCH   8  10
ATOM     10  C   UNL     1      51.564  52.305  19.687  1.00  0.00    +0.215 C 
BRANCH  10  11
ATOM     11  C   UNL     1      52.166  51.680  20.943  1.00  0.00    +0.236 C 
ATOM     12  O   UNL     1      52.935  50.725  20.920  1.00  0.00    -0.273 OA
ATOM     13  N   UNL     1      51.744  52.206  22.133  1.00  0.00    -0.368 N 
ATOM     14  H   UNL     1      50.905  52.769  22.152  1.00  0.00    +0.159 HD
ATOM     15  H   UNL     1      52.010  51.708  22.971  1.00  0.00    +0.159 HD
ENDBRANCH  10  11
ENDBRANCH   8  10
ENDBRANCH   1   6
BRANCH   1  16
ATOM     16  N   UNL     1      48.411  49.717  17.752  1.00  0.00    -0.309 N 
ATOM     17  C   UNL     1      48.216  48.394  18.004  1.00  0.00    +0.408 C 
ATOM     18  O   UNL     1      48.993  47.515  17.664  1.00  0.00    -0.225 OA
ATOM     19  H   UNL     1      47.845  50.348  18.304  1.00  0.00    +0.167 HD
BRANCH  17  20
ATOM     20  O   UNL     1      47.083  48.242  18.716  1.00  0.00    -0.444 OA
BRANCH  20  21
ATOM     21  C   UNL     1      45.838  47.887  18.060  1.00  0.00    +0.106 C 
ATOM     22  C   UNL     1      44.976  47.266  19.169  1.00  0.00    +0.056 C 
ATOM     23  C   UNL     1      46.067  46.834  16.970  1.00  0.00    +0.056 C 
ATOM     24  C   UNL     1      45.122  49.129  17.520  1.00  0.00    +0.056 C 
ENDBRANCH  20  21
ENDBRANCH  17  20
ENDBRANCH   1  16
TORSDOF 8
ENDMDL
MODEL 5
REMARK VINA RESULT:    -6.294      3.226      4.672
REMARK INTER + INTRA:          -9.832
REMARK INTER:                  -9.364
REMARK INTRA:                  -0.468
REMARK UNBOUND:                -0.595
REMARK SMILES CC[C@H](C)[C@H](NC(=O)OC(C)(C)C)C(=O)NCC(N)=O
REMARK SMILES IDX 5 1 3 2 4 3 2 4 1 5 14 6 15 7 16 8 17 10 18 11 20 12 19 13
REMARK SMILES IDX 6 16 7 17 8 18 9 20 10 21 11 22 12 23 13 24
REMARK H PARENT 16 9 19 14 19 15 6 19
ROOT
ATOM      1  C   UNL     1      50.244  55.367  19.169  1.00  0.00    +0.177 C 
ENDROOT
BRANCH   1   2
ATOM      2  C   UNL     1      49.152  56.442  18.936  1.00  0.00    +0.018 C 
ATOM      3  C   UNL     1      48.504  56.247  17.557  1.00  0.00    +0.010 C 
BRANCH   2   4
ATOM      4  C   UNL     1      48.082  56.394  20.053  1.00  0.00    +0.002 C 
ATOM      5  C   UNL     1      47.840  57.735  20.731  1.00  0.00    +0.004 C 
ENDBRANCH   2   4
ENDBRANCH   1   2
BRANCH   1   6
ATOM      6  C   UNL     1      50.840  55.429  20.597  1.00  0.00    +0.243 C 
ATOM      7  O   UNL     1      50.652  54.562  21.444  1.00  0.00    -0.273 OA
ATOM      8  N   UNL     1      51.679  56.511  20.799  1.00  0.00    -0.345 N 
ATOM      9  H   UNL     1      52.068  56.935  19.956  1.00  0.00    +0.164 HD
BRANCH   8  10
ATOM     10  C   UNL     1      52.499  56.589  21.998  1.00  0.00    +0.215 C 
BRANCH  10  11
ATOM     11  C   UNL     1      53.400  57.821  22.013  1.00  0.00    +0.236 C 
ATOM     12  O   UNL     1      54.625  57.762  21.972  1.00  0.00    -0.273 OA
ATOM     13  N   UNL     1      52.765  59.024  22.146  1.00  0.00    -0.368 N 
ATOM     14  H   UNL     1      51.810  59.043  22.477  1.00  0.00    +0.159 HD
ATOM     15  H   UNL     1      53.349  59.832  22.311  1.00  0.00    +0.159 HD
ENDBRANCH  10  11
ENDBRANCH   8  10
ENDBRANCH   1   6
BRANCH   1  16
ATOM     16  N   UNL     1      49.709  54.016  19.029  1.00  0.00    -0.309 N 
ATOM     17  C   UNL     1      50.469  52.991  18.557  1.00  0.00    +0.408 C 
ATOM     18  O   UNL     1      51.606  53.125  18.132  1.00  0.00    -0.225 OA
ATOM     19  H   UNL     1      48.910  53.739  19.585  1.00  0.00    +0.167 HD
BRANCH  17  20
ATOM     20  O   UNL     1      49.785  51.837  18.690  1.00  0.00    -0.444 OA
BRANCH  20  21
ATOM     21  C   UNL     1      49.245  51.159  17.526  1.00  0.00    +0.106 C 
ATOM     22  C   UNL     1      48.268  50.120  18.098  1.00  0.00    +0.056 C 
ATOM     23  C   UNL     1      50.345  50.423  16.753  1.00  0.00    +0.056 C 
ATOM     24  C   UNL     1      48.462  52.127  16.634  1.00  0.00    +0.056 C 
ENDBRANCH  20  21
ENDBRANCH  17  20
ENDBRANCH   1  16
TORSDOF 8
ENDMDL
