MODEL 1
REMARK VINA RESULT:    -6.164      0.000      0.000
REMARK INTER + INTRA:          -9.654
REMARK INTER:                  -8.687
REMARK INTRA:                  -0.967
REMARK UNBOUND:                -0.967
REMARK SMILES C=CCNC(=O)Nc1cc(F)ccc1OCCOC
REMARK SMILES IDX 15 1 16 2 17 3 18 4 19 5 14 6 13 7 8 8 12 9 9 10 10 11 11 12
REMARK SMILES IDX 7 13 5 14 6 15 4 16 3 19 2 20 1 21
REMARK H PARENT 7 17 4 18
ROOT
ATOM      1  O   UNL     1      51.406  54.478  20.815  1.00  0.00    -0.489 OA
ENDROOT
BRANCH   1   2
ATOM      2  C   UNL     1      51.651  53.761  22.029  1.00  0.00    +0.258 C 
BRANCH   2   3
ATOM      3  C   UNL     1      51.615  52.264  21.723  1.00  0.00    +0.201 C 
BRANCH   3   4
ATOM      4  O   UNL     1      51.417  52.067  20.319  1.00  0.00    -0.381 OA
ATOM      5  C   UNL     1      52.451  51.274  19.750  1.00  0.00    +0.195 C 
ENDBRANCH   3   4
ENDBRANCH   2   3
ENDBRANCH   1   2
BRANCH   1   6
ATOM      6  C   UNL     1      50.392  55.407  20.820  1.00  0.00    +0.143 A 
ATOM      7  C   UNL     1      50.436  56.635  21.489  1.00  0.00    +0.052 A 
ATOM      8  C   UNL     1      49.233  55.038  20.099  1.00  0.00    +0.088 A 
ATOM      9  C   UNL     1      49.336  57.492  21.437  1.00  0.00    +0.043 A 
ATOM     10  C   UNL     1      48.140  55.903  20.052  1.00  0.00    +0.069 A 
ATOM     11  C   UNL     1      48.204  57.119  20.723  1.00  0.00    +0.125 A 
ATOM     12  F   UNL     1      47.156  57.953  20.678  1.00  0.00    -0.207 F 
BRANCH   8  13
ATOM     13  N   UNL     1      49.271  53.794  19.431  1.00  0.00    -0.305 N 
ATOM     14  C   UNL     1      48.995  53.524  18.114  1.00  0.00    +0.319 C 
ATOM     15  O   UNL     1      48.583  54.315  17.275  1.00  0.00    -0.248 OA
ATOM     16  N   UNL     1      49.236  52.195  17.829  1.00  0.00    -0.334 N 
ATOM     17  H   UNL     1      49.398  52.998  20.044  1.00  0.00    +0.172 HD
ATOM     18  H   UNL     1      49.983  51.781  18.366  1.00  0.00    +0.165 HD
BRANCH  16  19
ATOM     19  C   UNL     1      49.075  51.730  16.474  1.00  0.00    +0.145 C 
BRANCH  19  20
ATOM     20  C   UNL     1      47.865  50.853  16.430  1.00  0.00    -0.014 C 
ATOM     21  C   UNL     1      47.361  50.206  17.489  1.00  0.00    +0.006 C 
ENDBRANCH  19  20
ENDBRANCH  16  19
ENDBRANCH   8  13
ENDBRANCH   1   6
TORSDOF 7
ENDMDL
MODEL 2
REMARK VINA RESULT:    -6.002      2.205      3.942
REMARK INTER + INTRA:          -9.425
REMARK INTER:                  -8.250
REMARK INTRA:                  -1.175
REMARK UNBOUND:                -0.967
REMARK SMILES C=CCNC(=O)Nc1cc(F)ccc1OCCOC
REMARK SMILES IDX 15 1 16 2 17 3 18 4 19 5 14 6 13 7 8 8 12 9 9 10 10 11 11 12
REMARK SMILES IDX 7 13 5 14 6 15 4 16 3 19 2 20 1 21
REMARK H PARENT 7 17 4 18
ROOT
ATOM      1  O   UNL     1      49.135  54.292  19.653  1.00  0.00    -0.489 OA
ENDROOT
BRANCH   1   2
ATOM      2  C   UNL     1      48.620  54.652  18.366  1.00  0.00    +0.258 C 
BRANCH   2   3
ATOM      3  C   UNL     1      48.711  53.432  17.449  1.00  0.00    +0.201 C 
BRANCH   3   4
ATOM      4  O   UNL     1      49.661  52.503  17.982  1.00  0.00    -0.381 OA
ATOM      5  C   UNL     1      49.332  51.163  17.639  1.00  0.00    +0.195 C 
ENDBRANCH   3   4
ENDBRANCH   2   3
ENDBRANCH   1   2
BRANCH   1   6
ATOM      6  C   UNL     1      49.871  55.236  20.328  1.00  0.00    +0.143 A 
ATOM      7  C   UNL     1      49.357  56.426  20.853  1.00  0.00    +0.052 A 
ATOM      8  C   UNL     1      51.249  54.945  20.458  1.00  0.00    +0.088 A 
ATOM      9  C   UNL     1      50.206  57.320  21.507  1.00  0.00    +0.043 A 
ATOM     10  C   UNL     1      52.089  55.845  21.115  1.00  0.00    +0.069 A 
ATOM     11  C   UNL     1      51.558  57.023  21.630  1.00  0.00    +0.125 A 
ATOM     12  F   UNL     1      52.362  57.887  22.263  1.00  0.00    -0.207 F 
BRANCH   8  13
ATOM     13  N   UNL     1      51.691  53.716  19.924  1.00  0.00    -0.305 N 
ATOM     14  C   UNL     1      51.980  52.550  20.589  1.00  0.00    +0.319 C 
ATOM     15  O   UNL     1      51.981  52.381  21.802  1.00  0.00    -0.248 OA
ATOM     16  N   UNL     1      52.293  51.545  19.697  1.00  0.00    -0.334 N 
ATOM     17  H   UNL     1      51.938  53.755  18.943  1.00  0.00    +0.172 HD
ATOM     18  H   UNL     1      51.815  51.608  18.812  1.00  0.00    +0.165 HD
BRANCH  16  19
ATOM     19  C   UNL     1      52.556  50.220  20.201  1.00  0.00    +0.145 C 
BRANCH  19  20
ATOM     20  C   UNL     1      51.341  49.384  19.952  1.00  0.00    -0.014 C 
ATOM     21  C   UNL     1      50.462  49.028  20.897  1.00  0.00    +0.006 C 
ENDBRANCH  19  20
ENDBRANCH  16  19
ENDBRANCH   8  13
ENDBRANCH   1   6
TORSDOF 7
ENDMDL
MODEL 3
REMARK VINA RESULT:    -5.811      2.905      6.048
REMARK INTER + INTRA:          -9.156
REMARK INTER:                  -8.006
REMARK INTRA:                  -1.151
REMARK UNBOUND:                -0.967
REMARK SMILES C=CCNC(=O)Nc1cc(F)ccc1OCCOC
REMARK SMILES IDX 15 1 16 2 17 3 18 4 19 5 14 6 13 7 8 8 12 9 9 10 10 11 11 12
REMARK SMILES IDX 7 13 5 14 6 15 4 16 3 19 2 20 1 21
REMARK H PARENT 7 17 4 18
ROOT
ATOM      1  O   UNL     1      50.015  50.110  19.509  1.00  0.00    -0.489 OA
ENDROOT
BRANCH   1   2
ATOM      2  C   UNL     1      51.197  49.445  19.968  1.00  0.00    +0.258 C 
BRANCH   2   3
ATOM      3  C   UNL     1      52.224  50.504  20.368  1.00  0.00    +0.201 C 
BRANCH   3   4
ATOM      4  O   UNL     1      51.606  51.795  20.366  1.00  0.00    -0.381 OA
ATOM      5  C   UNL     1      51.696  52.421  21.639  1.00  0.00    +0.195 C 
ENDBRANCH   3   4
ENDBRANCH   2   3
ENDBRANCH   1   2
BRANCH   1   6
ATOM      6  C   UNL     1      49.585  49.829  18.233  1.00  0.00    +0.143 A 
ATOM      7  C   UNL     1      49.074  48.596  17.815  1.00  0.00    +0.052 A 
ATOM      8  C   UNL     1      49.707  50.892  17.309  1.00  0.00    +0.088 A 
ATOM      9  C   UNL     1      48.683  48.423  16.486  1.00  0.00    +0.043 A 
ATOM     10  C   UNL     1      49.312  50.708  15.984  1.00  0.00    +0.069 A 
ATOM     11  C   UNL     1      48.806  49.475  15.588  1.00  0.00    +0.125 A 
ATOM     12  F   UNL     1      48.423  49.297  14.317  1.00  0.00    -0.207 F 
BRANCH   8  13
ATOM     13  N   UNL     1      50.210  52.113  17.809  1.00  0.00    -0.305 N 
ATOM     14  C   UNL     1      49.526  53.273  18.076  1.00  0.00    +0.319 C 
ATOM     15  O   UNL     1      48.342  53.492  17.852  1.00  0.00    -0.248 OA
ATOM     16  N   UNL     1      50.363  54.213  18.641  1.00  0.00    -0.334 N 
ATOM     17  H   UNL     1      51.220  52.159  17.853  1.00  0.00    +0.172 HD
ATOM     18  H   UNL     1      51.101  53.827  19.210  1.00  0.00    +0.165 HD
BRANCH  16  19
ATOM     19  C   UNL     1      49.812  55.477  19.062  1.00  0.00    +0.145 C 
BRANCH  19  20
ATOM     20  C   UNL     1      50.022  55.602  20.538  1.00  0.00    -0.014 C 
ATOM     21  C   UNL     1      49.664  56.670  21.264  1.00  0.00    +0.006 C 
ENDBRANCH  19  20
ENDBRANCH  16  19
ENDBRANCH   8  13
ENDBRANCH   1   6
TORSDOF 7
ENDMDL
MODEL 4
REMARK VINA RESULT:    -5.648      2.803      5.428
REMARK INTER + INTRA:          -8.926
REMARK INTER:                  -8.659
REMARK INTRA:                  -0.267
REMARK UNBOUND:                -0.967
REMARK SMILES C=CCNC(=O)Nc1cc(F)ccc1OCCOC
REMARK SMILES IDX 15 1 16 2 17 3 18 4 19 5 14 6 13 7 8 8 12 9 9 10 10 11 11 12
REMARK SMILES IDX 7 13 5 14 6 15 4 16 3 19 2 20 1 21
REMARK H PARENT 7 17 4 18
ROOT
ATOM      1  O   UNL     1      52.036  54.290  20.675  1.00  0.00    -0.489 OA
ENDROOT
BRANCH   1   2
ATOM      2  C   UNL     1      51.652  54.158  22.048  1.00  0.00    +0.258 C 
BRANCH   2   3
ATOM      3  C   UNL     1      51.694  55.541  22.698  1.00  0.00    +0.201 C 
BRANCH   3   4
ATOM      4  O   UNL     1      52.794  56.286  22.166  1.00  0.00    -0.381 OA
ATOM      5  C   UNL     1      52.408  57.607  21.808  1.00  0.00    +0.195 C 
ENDBRANCH   3   4
ENDBRANCH   2   3
ENDBRANCH   1   2
BRANCH   1   6
ATOM      6  C   UNL     1      51.721  53.255  19.827  1.00  0.00    +0.143 A 
ATOM      7  C   UNL     1      52.623  52.283  19.381  1.00  0.00    +0.052 A 
ATOM      8  C   UNL     1      50.378  53.226  19.386  1.00  0.00    +0.088 A 
ATOM      9  C   UNL     1      52.191  51.286  18.505  1.00  0.00    +0.043 A 
ATOM     10  C   UNL     1      49.957  52.224  18.511  1.00  0.00    +0.069 A 
ATOM     11  C   UNL     1      50.868  51.267  18.079  1.00  0.00    +0.125 A 
ATOM     12  F   UNL     1      50.466  50.303  17.241  1.00  0.00    -0.207 F 
BRANCH   8  13
ATOM     13  N   UNL     1      49.520  54.225  19.895  1.00  0.00    -0.305 N 
ATOM     14  C   UNL     1      49.208  55.444  19.347  1.00  0.00    +0.319 C 
ATOM     15  O   UNL     1      49.686  55.933  18.331  1.00  0.00    -0.248 OA
ATOM     16  N   UNL     1      48.258  56.092  20.111  1.00  0.00    -0.334 N 
ATOM     17  H   UNL     1      49.202  54.055  20.842  1.00  0.00    +0.172 HD
ATOM     18  H   UNL     1      47.608  55.479  20.578  1.00  0.00    +0.165 HD
BRANCH  16  19
ATOM     19  C   UNL     1      47.745  57.360  19.658  1.00  0.00    +0.145 C 
BRANCH  19  20
ATOM     20  C   UNL     1      47.892  58.343  20.776  1.00  0.00    -0.014 C 
ATOM     21  C   UNL     1      48.773  58.221  21.778  1.00  0.00    +0.006 C 
ENDBRANCH  19  20
ENDBRANCH  16  19
ENDBRANCH   8  13
ENDBRANCH   1   6
TORSDOF 7
ENDMDL
MODEL 5
REMARK VINA RESULT:    -5.569      2.761      5.202
REMARK INTER + INTRA:          -8.816
REMARK INTER:                  -8.347
REMARK INTRA:                  -0.469
REMARK UNBOUND:                -0.967
REMARK SMILES C=CCNC(=O)Nc1cc(F)ccc1OCCOC
REMARK SMILES IDX 15 1 16 2 17 3 18 4 19 5 14 6 13 7 8 8 12 9 9 10 10 11 11 12
REMARK SMILES IDX 7 13 5 14 6 15 4 16 3 19 2 20 1 21
REMARK H PARENT 7 17 4 18
ROOT
ATOM      1  O   UNL     1      48.284  56.406  17.367  1.00  0.00    -0.489 OA
ENDROOT
BRANCH   1   2
ATOM      2  C   UNL     1      48.255  57.294  16.245  1.00  0.00    +0.258 C 
BRANCH   2   3
ATOM      3  C   UNL     1      47.491  56.614  15.109  1.00  0.00    +0.201 C 
BRANCH   3   4
ATOM      4  O   UNL     1      47.528  57.444  13.944  1.00  0.00    -0.381 OA
ATOM      5  C   UNL     1      46.680  56.945  12.917  1.00  0.00    +0.195 C 
ENDBRANCH   3   4
ENDBRANCH   2   3
ENDBRANCH   1   2
BRANCH   1   6
ATOM      6  C   UNL     1      48.325  56.969  18.621  1.00  0.00    +0.143 A 
ATOM      7  C   UNL     1      47.710  58.175  18.975  1.00  0.00    +0.052 A 
ATOM      8  C   UNL     1      49.071  56.249  19.581  1.00  0.00    +0.088 A 
ATOM      9  C   UNL     1      47.834  58.659  20.279  1.00  0.00    +0.043 A 
ATOM     10  C   UNL     1      49.187  56.741  20.881  1.00  0.00    +0.069 A 
ATOM     11  C   UNL     1      48.569  57.941  21.215  1.00  0.00    +0.125 A 
ATOM     12  F   UNL     1      48.677  58.415  22.463  1.00  0.00    -0.207 F 
BRANCH   8  13
ATOM     13  N   UNL     1      49.643  55.030  19.157  1.00  0.00    -0.305 N 
ATOM     14  C   UNL     1      50.971  54.698  19.058  1.00  0.00    +0.319 C 
ATOM     15  O   UNL     1      51.927  55.439  19.251  1.00  0.00    -0.248 OA
ATOM     16  N   UNL     1      51.117  53.376  18.691  1.00  0.00    -0.334 N 
ATOM     17  H   UNL     1      48.978  54.375  18.763  1.00  0.00    +0.172 HD
ATOM     18  H   UNL     1      50.387  52.766  19.025  1.00  0.00    +0.165 HD
BRANCH  16  19
ATOM     19  C   UNL     1      52.442  52.816  18.606  1.00  0.00    +0.145 C 
BRANCH  19  20
ATOM     20  C   UNL     1      52.397  51.436  19.180  1.00  0.00    -0.014 C 
ATOM     21  C   UNL     1      52.445  51.161  20.490  1.00  0.00    +0.006 C 
ENDBRANCH  19  20
ENDBRANCH  16  19
ENDBRANCH   8  13
ENDBRANCH   1   6
TORSDOF 7
ENDMDL
