MODEL 1
REMARK VINA RESULT:    -8.676      0.000      0.000
REMARK INTER + INTRA:         -12.563
REMARK INTER:                 -11.719
REMARK INTRA:                  -0.844
REMARK UNBOUND:                -0.844
REMARK SMILES CCCC[NH+]1CCCC[C@H]1CNC(=O)C1CCC2(CC1)NC(=O)NC2=O
REMARK SMILES IDX 5 1 6 2 7 3 8 4 9 5 10 6 4 8 3 9 2 10 1 11 11 12 12 13 13 14
REMARK SMILES IDX 14 15 15 17 16 18 20 19 17 20 19 21 18 22 25 23 21 24 26 25
REMARK SMILES IDX 24 26 22 27 23 28
REMARK H PARENT 5 7 12 16 21 29 24 30
ROOT
ATOM      1  N   UNL     1      47.567  50.120  16.932  1.00  0.00    -0.331 N 
ATOM      2  C   UNL     1      47.539  50.084  15.418  1.00  0.00    +0.262 C 
ATOM      3  C   UNL     1      48.937  49.899  14.860  1.00  0.00    +0.062 C 
ATOM      4  C   UNL     1      49.540  48.564  15.285  1.00  0.00    +0.012 C 
ATOM      5  C   UNL     1      48.976  48.053  16.610  1.00  0.00    +0.067 C 
ATOM      6  C   UNL     1      48.602  49.169  17.585  1.00  0.00    +0.203 C 
ATOM      7  H   UNL     1      47.903  51.047  17.225  1.00  0.00    +0.348 HD
ENDROOT
BRANCH   1   8
ATOM      8  C   UNL     1      46.173  49.982  17.532  1.00  0.00    +0.262 C 
BRANCH   8   9
ATOM      9  C   UNL     1      45.350  48.866  16.881  1.00  0.00    +0.061 C 
BRANCH   9  10
ATOM     10  C   UNL     1      44.537  47.979  17.825  1.00  0.00    +0.002 C 
ATOM     11  C   UNL     1      45.356  47.437  18.990  1.00  0.00    +0.004 C 
ENDBRANCH   9  10
ENDBRANCH   8   9
ENDBRANCH   1   8
BRANCH   6  12
ATOM     12  C   UNL     1      49.841  49.986  18.064  1.00  0.00    +0.180 C 
BRANCH  12  13
ATOM     13  N   UNL     1      49.603  51.414  18.277  1.00  0.00    -0.350 N 
ATOM     14  C   UNL     1      50.273  52.078  19.292  1.00  0.00    +0.223 C 
ATOM     15  O   UNL     1      50.781  51.461  20.221  1.00  0.00    -0.275 OA
ATOM     16  H   UNL     1      49.446  51.963  17.435  1.00  0.00    +0.163 HD
BRANCH  14  17
ATOM     17  C   UNL     1      50.267  53.603  19.167  1.00  0.00    +0.078 C 
ATOM     18  C   UNL     1      51.685  54.130  18.867  1.00  0.00    +0.016 C 
ATOM     19  C   UNL     1      49.639  54.262  20.409  1.00  0.00    +0.016 C 
ATOM     20  C   UNL     1      52.394  54.636  20.123  1.00  0.00    +0.039 C 
ATOM     21  C   UNL     1      50.101  55.707  20.582  1.00  0.00    +0.039 C 
ATOM     22  C   UNL     1      51.621  55.787  20.786  1.00  0.00    +0.121 C 
ATOM     23  C   UNL     1      51.965  55.861  22.287  1.00  0.00    +0.253 C 
ATOM     24  N   UNL     1      52.128  57.078  20.374  1.00  0.00    -0.323 N 
ATOM     25  O   UNL     1      51.728  54.996  23.118  1.00  0.00    -0.272 OA
ATOM     26  N   UNL     1      52.575  57.049  22.541  1.00  0.00    -0.276 N 
ATOM     27  C   UNL     1      52.673  57.790  21.416  1.00  0.00    +0.322 C 
ATOM     28  O   UNL     1      53.156  58.902  21.318  1.00  0.00    -0.248 OA
ATOM     29  H   UNL     1      52.102  57.476  19.443  1.00  0.00    +0.166 HD
ATOM     30  H   UNL     1      52.896  57.354  23.445  1.00  0.00    +0.174 HD
ENDBRANCH  14  17
ENDBRANCH  12  13
ENDBRANCH   6  12
TORSDOF 6
ENDMDL
MODEL 2
REMARK VINA RESULT:    -8.601      3.000      9.141
REMARK INTER + INTRA:         -12.462
REMARK INTER:                 -11.778
REMARK INTRA:                  -0.684
REMARK UNBOUND:                -0.844
REMARK SMILES CCCC[NH+]1CCCC[C@H]1CNC(=O)C1CCC2(CC1)NC(=O)NC2=O
REMARK SMILES IDX 5 1 6 2 7 3 8 4 9 5 10 6 4 8 3 9 2 10 1 11 11 12 12 13 13 14
REMARK SMILES IDX 14 15 15 17 16 18 20 19 17 20 19 21 18 22 25 23 21 24 26 25
REMARK SMILES IDX 24 26 22 27 23 28
REMARK H PARENT 5 7 12 16 21 29 24 30
ROOT
ATOM      1  N   UNL     1      51.002  54.688  20.244  1.00  0.00    -0.331 N 
ATOM      2  C   UNL     1      51.827  54.362  21.473  1.00  0.00    +0.262 C 
ATOM      3  C   UNL     1      51.745  52.883  21.797  1.00  0.00    +0.062 C 
ATOM      4  C   UNL     1      52.333  52.029  20.677  1.00  0.00    +0.012 C 
ATOM      5  C   UNL     1      52.246  52.703  19.309  1.00  0.00    +0.067 C 
ATOM      6  C   UNL     1      51.016  53.595  19.145  1.00  0.00    +0.203 C 
ATOM      7  H   UNL     1      50.010  54.711  20.520  1.00  0.00    +0.348 HD
ENDROOT
BRANCH   1   8
ATOM      8  C   UNL     1      51.309  56.079  19.702  1.00  0.00    +0.262 C 
BRANCH   8   9
ATOM      9  C   UNL     1      50.539  57.186  20.429  1.00  0.00    +0.061 C 
BRANCH   9  10
ATOM     10  C   UNL     1      49.176  56.802  21.006  1.00  0.00    +0.002 C 
ATOM     11  C   UNL     1      48.201  57.971  21.066  1.00  0.00    +0.004 C 
ENDBRANCH   9  10
ENDBRANCH   8   9
ENDBRANCH   1   8
BRANCH   6  12
ATOM     12  C   UNL     1      49.682  52.789  19.184  1.00  0.00    +0.180 C 
BRANCH  12  13
ATOM     13  N   UNL     1      49.468  51.879  18.058  1.00  0.00    -0.350 N 
ATOM     14  C   UNL     1      49.433  50.511  18.276  1.00  0.00    +0.223 C 
ATOM     15  O   UNL     1      49.911  50.023  19.294  1.00  0.00    -0.275 OA
ATOM     16  H   UNL     1      48.834  52.216  17.337  1.00  0.00    +0.163 HD
BRANCH  14  17
ATOM     17  C   UNL     1      48.810  49.701  17.138  1.00  0.00    +0.078 C 
ATOM     18  C   UNL     1      47.494  50.351  16.664  1.00  0.00    +0.016 C 
ATOM     19  C   UNL     1      48.633  48.225  17.536  1.00  0.00    +0.016 C 
ATOM     20  C   UNL     1      46.263  49.683  17.277  1.00  0.00    +0.039 C 
ATOM     21  C   UNL     1      47.555  47.535  16.703  1.00  0.00    +0.039 C 
ATOM     22  C   UNL     1      46.183  48.194  16.909  1.00  0.00    +0.121 C 
ATOM     23  C   UNL     1      45.366  47.428  17.969  1.00  0.00    +0.253 C 
ATOM     24  N   UNL     1      45.330  47.971  15.761  1.00  0.00    -0.323 N 
ATOM     25  O   UNL     1      45.668  47.296  19.146  1.00  0.00    -0.272 OA
ATOM     26  N   UNL     1      44.251  46.919  17.382  1.00  0.00    -0.276 N 
ATOM     27  C   UNL     1      44.217  47.225  16.066  1.00  0.00    +0.322 C 
ATOM     28  O   UNL     1      43.357  46.903  15.268  1.00  0.00    -0.248 OA
ATOM     29  H   UNL     1      45.485  48.291  14.813  1.00  0.00    +0.166 HD
ATOM     30  H   UNL     1      43.550  46.369  17.849  1.00  0.00    +0.174 HD
ENDBRANCH  14  17
ENDBRANCH  12  13
ENDBRANCH   6  12
TORSDOF 6
ENDMDL
MODEL 3
REMARK VINA RESULT:    -8.589      2.940      8.177
REMARK INTER + INTRA:         -12.446
REMARK INTER:                 -11.460
REMARK INTRA:                  -0.985
REMARK UNBOUND:                -0.844
REMARK SMILES CCCC[NH+]1CCCC[C@H]1CNC(=O)C1CCC2(CC1)NC(=O)NC2=O
REMARK SMILES IDX 5 1 6 2 7 3 8 4 9 5 10 6 4 8 3 9 2 10 1 11 11 12 12 13 13 14
REMARK SMILES IDX 14 15 15 17 16 18 20 19 17 20 19 21 18 22 25 23 21 24 26 25
REMARK SMILES IDX 24 26 22 27 23 28
REMARK H PARENT 5 7 12 16 21 29 24 30
ROOT
ATOM      1  N   UNL     1      50.858  57.365  21.983  1.00  0.00    -0.331 N 
ATOM      2  C   UNL     1      51.936  58.401  21.739  1.00  0.00    +0.262 C 
ATOM      3  C   UNL     1      53.290  57.737  21.573  1.00  0.00    +0.062 C 
ATOM      4  C   UNL     1      53.321  56.824  20.351  1.00  0.00    +0.012 C 
ATOM      5  C   UNL     1      51.945  56.267  19.990  1.00  0.00    +0.067 C 
ATOM      6  C   UNL     1      51.041  56.039  21.201  1.00  0.00    +0.203 C 
ATOM      7  H   UNL     1      50.926  57.054  22.963  1.00  0.00    +0.348 HD
ENDROOT
BRANCH   1   8
ATOM      8  C   UNL     1      49.459  57.951  21.837  1.00  0.00    +0.262 C 
BRANCH   8   9
ATOM      9  C   UNL     1      48.530  57.075  20.991  1.00  0.00    +0.061 C 
BRANCH   9  10
ATOM     10  C   UNL     1      48.052  57.670  19.666  1.00  0.00    +0.002 C 
ATOM     11  C   UNL     1      47.490  59.079  19.811  1.00  0.00    +0.004 C 
ENDBRANCH   9  10
ENDBRANCH   8   9
ENDBRANCH   1   8
BRANCH   6  12
ATOM     12  C   UNL     1      51.588  54.934  22.156  1.00  0.00    +0.180 C 
BRANCH  12  13
ATOM     13  N   UNL     1      52.077  53.723  21.495  1.00  0.00    -0.350 N 
ATOM     14  C   UNL     1      51.279  52.590  21.459  1.00  0.00    +0.223 C 
ATOM     15  O   UNL     1      50.346  52.451  22.241  1.00  0.00    -0.275 OA
ATOM     16  H   UNL     1      52.645  53.875  20.665  1.00  0.00    +0.163 HD
BRANCH  14  17
ATOM     17  C   UNL     1      51.699  51.550  20.419  1.00  0.00    +0.078 C 
ATOM     18  C   UNL     1      52.202  52.237  19.133  1.00  0.00    +0.016 C 
ATOM     19  C   UNL     1      50.567  50.542  20.150  1.00  0.00    +0.016 C 
ATOM     20  C   UNL     1      51.125  52.298  18.049  1.00  0.00    +0.039 C 
ATOM     21  C   UNL     1      50.715  49.869  18.787  1.00  0.00    +0.039 C 
ATOM     22  C   UNL     1      50.644  50.896  17.647  1.00  0.00    +0.121 C 
ATOM     23  C   UNL     1      49.216  50.970  17.070  1.00  0.00    +0.253 C 
ATOM     24  N   UNL     1      51.337  50.409  16.473  1.00  0.00    -0.323 N 
ATOM     25  O   UNL     1      48.217  51.325  17.679  1.00  0.00    -0.272 OA
ATOM     26  N   UNL     1      49.245  50.574  15.770  1.00  0.00    -0.276 N 
ATOM     27  C   UNL     1      50.498  50.228  15.400  1.00  0.00    +0.322 C 
ATOM     28  O   UNL     1      50.846  49.822  14.308  1.00  0.00    -0.248 OA
ATOM     29  H   UNL     1      52.323  50.194  16.392  1.00  0.00    +0.166 HD
ATOM     30  H   UNL     1      48.445  50.522  15.162  1.00  0.00    +0.174 HD
ENDBRANCH  14  17
ENDBRANCH  12  13
ENDBRANCH   6  12
TORSDOF 6
ENDMDL
MODEL 4
REMARK VINA RESULT:    -8.299      2.824      8.790
REMARK INTER + INTRA:         -12.054
REMARK INTER:                 -11.163
REMARK INTRA:                  -0.891
REMARK UNBOUND:                -0.844
REMARK SMILES CCCC[NH+]1CCCC[C@H]1CNC(=O)C1CCC2(CC1)NC(=O)NC2=O
REMARK SMILES IDX 5 1 6 2 7 3 8 4 9 5 10 6 4 8 3 9 2 10 1 11 11 12 12 13 13 14
REMARK SMILES IDX 14 15 15 17 16 18 20 19 17 20 19 21 18 22 25 23 21 24 26 25
REMARK SMILES IDX 24 26 22 27 23 28
REMARK H PARENT 5 7 12 16 21 29 24 30
ROOT
ATOM      1  N   UNL     1      49.620  56.601  21.387  1.00  0.00    -0.331 N 
ATOM      2  C   UNL     1      50.935  56.623  22.138  1.00  0.00    +0.262 C 
ATOM      3  C   UNL     1      51.756  55.388  21.821  1.00  0.00    +0.062 C 
ATOM      4  C   UNL     1      52.134  55.330  20.344  1.00  0.00    +0.012 C 
ATOM      5  C   UNL     1      51.135  56.058  19.445  1.00  0.00    +0.067 C 
ATOM      6  C   UNL     1      49.697  56.000  19.960  1.00  0.00    +0.203 C 
ATOM      7  H   UNL     1      48.987  55.946  21.867  1.00  0.00    +0.348 HD
ENDROOT
BRANCH   1   8
ATOM      8  C   UNL     1      48.917  57.952  21.425  1.00  0.00    +0.262 C 
BRANCH   8   9
ATOM      9  C   UNL     1      47.631  57.980  20.592  1.00  0.00    +0.061 C 
BRANCH   9  10
ATOM     10  C   UNL     1      47.539  59.063  19.517  1.00  0.00    +0.002 C 
ATOM     11  C   UNL     1      47.546  58.502  18.101  1.00  0.00    +0.004 C 
ENDBRANCH   9  10
ENDBRANCH   8   9
ENDBRANCH   1   8
BRANCH   6  12
ATOM     12  C   UNL     1      49.120  54.552  19.964  1.00  0.00    +0.180 C 
BRANCH  12  13
ATOM     13  N   UNL     1      49.375  53.774  18.751  1.00  0.00    -0.350 N 
ATOM     14  C   UNL     1      49.935  52.511  18.849  1.00  0.00    +0.223 C 
ATOM     15  O   UNL     1      50.536  52.165  19.860  1.00  0.00    -0.275 OA
ATOM     16  H   UNL     1      48.688  53.883  18.008  1.00  0.00    +0.163 HD
BRANCH  14  17
ATOM     17  C   UNL     1      49.780  51.646  17.597  1.00  0.00    +0.078 C 
ATOM     18  C   UNL     1      48.510  52.042  16.817  1.00  0.00    +0.016 C 
ATOM     19  C   UNL     1      49.820  50.147  17.945  1.00  0.00    +0.016 C 
ATOM     20  C   UNL     1      47.332  51.113  17.116  1.00  0.00    +0.039 C 
ATOM     21  C   UNL     1      49.136  49.295  16.879  1.00  0.00    +0.039 C 
ATOM     22  C   UNL     1      47.649  49.657  16.745  1.00  0.00    +0.121 C 
ATOM     23  C   UNL     1      46.778  48.695  17.578  1.00  0.00    +0.253 C 
ATOM     24  N   UNL     1      47.156  49.322  15.425  1.00  0.00    -0.323 N 
ATOM     25  O   UNL     1      46.813  48.572  18.794  1.00  0.00    -0.272 OA
ATOM     26  N   UNL     1      45.963  48.001  16.741  1.00  0.00    -0.276 N 
ATOM     27  C   UNL     1      46.180  48.355  15.455  1.00  0.00    +0.322 C 
ATOM     28  O   UNL     1      45.620  47.905  14.473  1.00  0.00    -0.248 OA
ATOM     29  H   UNL     1      47.463  49.710  14.542  1.00  0.00    +0.166 HD
ATOM     30  H   UNL     1      45.299  47.301  17.027  1.00  0.00    +0.174 HD
ENDBRANCH  14  17
ENDBRANCH  12  13
ENDBRANCH   6  12
TORSDOF 6
ENDMDL
MODEL 5
REMARK VINA RESULT:    -8.082      2.085      3.446
REMARK INTER + INTRA:         -11.762
REMARK INTER:                 -10.617
REMARK INTRA:                  -1.145
REMARK UNBOUND:                -0.844
REMARK SMILES CCCC[NH+]1CCCC[C@H]1CNC(=O)C1CCC2(CC1)NC(=O)NC2=O
REMARK SMILES IDX 5 1 6 2 7 3 8 4 9 5 10 6 4 8 3 9 2 10 1 11 11 12 12 13 13 14
REMARK SMILES IDX 14 15 15 17 16 18 20 19 17 20 19 21 18 22 25 23 21 24 26 25
REMARK SMILES IDX 24 26 22 27 23 28
REMARK H PARENT 5 7 12 16 21 29 24 30
ROOT
ATOM      1  N   UNL     1      48.397  49.489  17.978  1.00  0.00    -0.331 N 
ATOM      2  C   UNL     1      47.021  48.872  18.123  1.00  0.00    +0.262 C 
ATOM      3  C   UNL     1      46.104  49.339  17.008  1.00  0.00    +0.062 C 
ATOM      4  C   UNL     1      46.607  48.888  15.640  1.00  0.00    +0.012 C 
ATOM      5  C   UNL     1      48.123  48.696  15.599  1.00  0.00    +0.067 C 
ATOM      6  C   UNL     1      48.884  49.653  16.516  1.00  0.00    +0.203 C 
ATOM      7  H   UNL     1      48.348  50.464  18.304  1.00  0.00    +0.348 HD
ENDROOT
BRANCH   1   8
ATOM      8  C   UNL     1      49.425  48.809  18.874  1.00  0.00    +0.262 C 
BRANCH   8   9
ATOM      9  C   UNL     1      50.576  49.737  19.273  1.00  0.00    +0.061 C 
BRANCH   9  10
ATOM     10  C   UNL     1      50.844  49.885  20.771  1.00  0.00    +0.002 C 
ATOM     11  C   UNL     1      51.797  51.027  21.099  1.00  0.00    +0.004 C 
ENDBRANCH   9  10
ENDBRANCH   8   9
ENDBRANCH   1   8
BRANCH   6  12
ATOM     12  C   UNL     1      48.744  51.142  16.076  1.00  0.00    +0.180 C 
BRANCH  12  13
ATOM     13  N   UNL     1      49.055  52.132  17.109  1.00  0.00    -0.350 N 
ATOM     14  C   UNL     1      48.386  53.345  17.123  1.00  0.00    +0.223 C 
ATOM     15  O   UNL     1      47.806  53.756  16.125  1.00  0.00    -0.275 OA
ATOM     16  H   UNL     1      49.278  51.752  18.026  1.00  0.00    +0.163 HD
BRANCH  14  17
ATOM     17  C   UNL     1      48.485  54.110  18.444  1.00  0.00    +0.078 C 
ATOM     18  C   UNL     1      48.753  55.607  18.186  1.00  0.00    +0.016 C 
ATOM     19  C   UNL     1      49.528  53.474  19.381  1.00  0.00    +0.016 C 
ATOM     20  C   UNL     1      50.232  55.965  18.330  1.00  0.00    +0.039 C 
ATOM     21  C   UNL     1      50.049  54.469  20.414  1.00  0.00    +0.039 C 
ATOM     22  C   UNL     1      50.757  55.654  19.740  1.00  0.00    +0.121 C 
ATOM     23  C   UNL     1      52.282  55.425  19.700  1.00  0.00    +0.253 C 
ATOM     24  N   UNL     1      50.727  56.823  20.592  1.00  0.00    -0.323 N 
ATOM     25  O   UNL     1      52.853  54.524  19.103  1.00  0.00    -0.272 OA
ATOM     26  N   UNL     1      52.891  56.388  20.440  1.00  0.00    -0.276 N 
ATOM     27  C   UNL     1      51.981  57.224  20.986  1.00  0.00    +0.322 C 
ATOM     28  O   UNL     1      52.210  58.176  21.708  1.00  0.00    -0.248 OA
ATOM     29  H   UNL     1      49.907  57.327  20.909  1.00  0.00    +0.166 HD
ATOM     30  H   UNL     1      53.884  56.465  20.586  1.00  0.00    +0.174 HD
ENDBRANCH  14  17
ENDBRANCH  12  13
ENDBRANCH   6  12
TORSDOF 6
ENDMDL
