MODEL 1
REMARK VINA RESULT:    -8.026      0.000      0.000
REMARK INTER + INTRA:         -10.851
REMARK INTER:                 -10.372
REMARK INTRA:                  -0.479
REMARK UNBOUND:                -0.479
REMARK SMILES CC(C)CCC(=O)NNC(=O)N[C@H]1CCC[C@@H](C)[C@H]1C
REMARK SMILES IDX 8 1 6 2 7 3 9 5 12 6 10 7 11 8 13 11 17 12 16 13 19 14 15 15
REMARK SMILES IDX 14 16 18 17 20 18 5 19 4 20 2 21 1 22 3 23
REMARK H PARENT 8 4 12 9 9 10
ROOT
ATOM      1  N   UNL     1      50.336  53.753  18.544  1.00  0.00    -0.266 N 
ATOM      2  C   UNL     1      50.312  53.721  19.929  1.00  0.00    +0.238 C 
ATOM      3  O   UNL     1      50.415  52.676  20.565  1.00  0.00    -0.273 OA
ATOM      4  H   UNL     1      49.885  54.529  18.060  1.00  0.00    +0.191 HD
ENDROOT
BRANCH   1   5
ATOM      5  N   UNL     1      50.169  52.501  17.894  1.00  0.00    -0.249 N 
ATOM      6  N   UNL     1      48.762  50.951  16.989  1.00  0.00    -0.334 N 
ATOM      7  C   UNL     1      48.897  52.251  17.412  1.00  0.00    +0.333 C 
ATOM      8  O   UNL     1      48.017  53.104  17.372  1.00  0.00    -0.247 OA
ATOM      9  H   UNL     1      49.627  50.529  16.681  1.00  0.00    +0.165 HD
ATOM     10  H   UNL     1      50.601  51.732  18.406  1.00  0.00    +0.193 HD
BRANCH   6  11
ATOM     11  C   UNL     1      47.537  50.490  16.345  1.00  0.00    +0.087 C 
ATOM     12  C   UNL     1      45.733  48.709  16.508  1.00  0.00    -0.009 C 
ATOM     13  C   UNL     1      46.590  47.665  15.771  1.00  0.00    +0.004 C 
ATOM     14  C   UNL     1      46.606  49.699  17.317  1.00  0.00    +0.011 C 
ATOM     15  C   UNL     1      47.907  48.226  15.231  1.00  0.00    +0.002 C 
ATOM     16  C   UNL     1      47.854  49.736  15.036  1.00  0.00    +0.025 C 
ATOM     17  C   UNL     1      44.646  48.026  17.340  1.00  0.00    +0.008 C 
ATOM     18  C   UNL     1      47.339  49.021  18.486  1.00  0.00    +0.010 C 
ENDBRANCH   6  11
ENDBRANCH   1   5
BRANCH   2  19
ATOM     19  C   UNL     1      50.192  55.100  20.549  1.00  0.00    +0.102 C 
BRANCH  19  20
ATOM     20  C   UNL     1      48.858  55.796  20.267  1.00  0.00    +0.013 C 
BRANCH  20  21
ATOM     21  C   UNL     1      48.866  57.313  20.547  1.00  0.00    -0.017 C 
ATOM     22  C   UNL     1      49.631  57.595  21.843  1.00  0.00    +0.007 C 
ATOM     23  C   UNL     1      47.465  57.917  20.636  1.00  0.00    +0.007 C 
ENDBRANCH  20  21
ENDBRANCH  19  20
ENDBRANCH   2  19
TORSDOF 5
ENDMDL
MODEL 2
REMARK VINA RESULT:    -7.901      1.536      8.037
REMARK INTER + INTRA:         -10.689
REMARK INTER:                 -10.201
REMARK INTRA:                  -0.489
REMARK UNBOUND:                -0.479
REMARK SMILES CC(C)CCC(=O)NNC(=O)N[C@H]1CCC[C@@H](C)[C@H]1C
REMARK SMILES IDX 8 1 6 2 7 3 9 5 12 6 10 7 11 8 13 11 17 12 16 13 19 14 15 15
REMARK SMILES IDX 14 16 18 17 20 18 5 19 4 20 2 21 1 22 3 23
REMARK H PARENT 8 4 12 9 9 10
ROOT
ATOM      1  N   UNL     1      50.156  50.997  17.847  1.00  0.00    -0.266 N 
ATOM      2  C   UNL     1      48.864  50.615  17.522  1.00  0.00    +0.238 C 
ATOM      3  O   UNL     1      48.031  51.411  17.097  1.00  0.00    -0.273 OA
ATOM      4  H   UNL     1      50.679  50.439  18.524  1.00  0.00    +0.191 HD
ENDROOT
BRANCH   1   5
ATOM      5  N   UNL     1      50.376  52.394  17.968  1.00  0.00    -0.249 N 
ATOM      6  N   UNL     1      50.397  54.254  19.286  1.00  0.00    -0.334 N 
ATOM      7  C   UNL     1      50.389  52.881  19.262  1.00  0.00    +0.333 C 
ATOM      8  O   UNL     1      50.399  52.155  20.250  1.00  0.00    -0.247 OA
ATOM      9  H   UNL     1      50.818  54.676  18.470  1.00  0.00    +0.165 HD
ATOM     10  H   UNL     1      49.826  52.937  17.303  1.00  0.00    +0.193 HD
BRANCH   6  11
ATOM     11  C   UNL     1      50.518  54.987  20.543  1.00  0.00    +0.087 C 
ATOM     12  C   UNL     1      49.981  57.223  21.621  1.00  0.00    -0.009 C 
ATOM     13  C   UNL     1      51.236  57.893  21.036  1.00  0.00    +0.004 C 
ATOM     14  C   UNL     1      49.442  56.107  20.693  1.00  0.00    +0.011 C 
ATOM     15  C   UNL     1      52.160  56.921  20.300  1.00  0.00    +0.002 C 
ATOM     16  C   UNL     1      51.964  55.481  20.755  1.00  0.00    +0.025 C 
ATOM     17  C   UNL     1      48.932  58.273  21.993  1.00  0.00    +0.008 C 
ATOM     18  C   UNL     1      48.906  56.654  19.360  1.00  0.00    +0.010 C 
ENDBRANCH   6  11
ENDBRANCH   1   5
BRANCH   2  19
ATOM     19  C   UNL     1      48.624  49.129  17.704  1.00  0.00    +0.102 C 
BRANCH  19  20
ATOM     20  C   UNL     1      47.536  48.794  18.728  1.00  0.00    +0.013 C 
BRANCH  20  21
ATOM     21  C   UNL     1      46.277  48.142  18.121  1.00  0.00    -0.017 C 
ATOM     22  C   UNL     1      45.415  49.214  17.447  1.00  0.00    +0.007 C 
ATOM     23  C   UNL     1      45.439  47.379  19.146  1.00  0.00    +0.007 C 
ENDBRANCH  20  21
ENDBRANCH  19  20
ENDBRANCH   2  19
TORSDOF 5
ENDMDL
MODEL 3
REMARK VINA RESULT:    -7.028      1.858      2.207
REMARK INTER + INTRA:          -9.560
REMARK INTER:                  -9.467
REMARK INTRA:                  -0.093
REMARK UNBOUND:                -0.479
REMARK SMILES CC(C)CCC(=O)NNC(=O)N[C@H]1CCC[C@@H](C)[C@H]1C
REMARK SMILES IDX 8 1 6 2 7 3 9 5 12 6 10 7 11 8 13 11 17 12 16 13 19 14 15 15
REMARK SMILES IDX 14 16 18 17 20 18 5 19 4 20 2 21 1 22 3 23
REMARK H PARENT 8 4 12 9 9 10
ROOT
ATOM      1  N   UNL     1      52.058  53.533  19.325  1.00  0.00    -0.266 N 
ATOM      2  C   UNL     1      51.956  54.912  19.231  1.00  0.00    +0.238 C 
ATOM      3  O   UNL     1      51.266  55.463  18.377  1.00  0.00    -0.273 OA
ATOM      4  H   UNL     1      52.888  53.129  19.761  1.00  0.00    +0.191 HD
ENDROOT
BRANCH   1   5
ATOM      5  N   UNL     1      51.588  52.800  18.204  1.00  0.00    -0.249 N 
ATOM      6  N   UNL     1      49.945  51.537  17.254  1.00  0.00    -0.334 N 
ATOM      7  C   UNL     1      50.263  52.410  18.265  1.00  0.00    +0.333 C 
ATOM      8  O   UNL     1      49.486  52.813  19.123  1.00  0.00    -0.247 OA
ATOM      9  H   UNL     1      50.512  51.646  16.425  1.00  0.00    +0.165 HD
ATOM     10  H   UNL     1      52.243  52.078  17.904  1.00  0.00    +0.193 HD
BRANCH   6  11
ATOM     11  C   UNL     1      48.575  51.074  17.059  1.00  0.00    +0.087 C 
ATOM     12  C   UNL     1      47.058  49.075  17.451  1.00  0.00    -0.009 C 
ATOM     13  C   UNL     1      47.549  48.357  16.183  1.00  0.00    +0.004 C 
ATOM     14  C   UNL     1      48.164  49.961  18.073  1.00  0.00    +0.011 C 
ATOM     15  C   UNL     1      48.498  49.201  15.330  1.00  0.00    +0.002 C 
ATOM     16  C   UNL     1      48.327  50.693  15.584  1.00  0.00    +0.025 C 
ATOM     17  C   UNL     1      46.444  48.077  18.434  1.00  0.00    +0.008 C 
ATOM     18  C   UNL     1      49.341  49.138  18.622  1.00  0.00    +0.010 C 
ENDBRANCH   6  11
ENDBRANCH   1   5
BRANCH   2  19
ATOM     19  C   UNL     1      52.738  55.637  20.309  1.00  0.00    +0.102 C 
BRANCH  19  20
ATOM     20  C   UNL     1      52.198  57.031  20.639  1.00  0.00    +0.013 C 
BRANCH  20  21
ATOM     21  C   UNL     1      51.391  57.100  21.952  1.00  0.00    -0.017 C 
ATOM     22  C   UNL     1      51.616  55.822  22.764  1.00  0.00    +0.007 C 
ATOM     23  C   UNL     1      49.894  57.310  21.729  1.00  0.00    +0.007 C 
ENDBRANCH  20  21
ENDBRANCH  19  20
ENDBRANCH   2  19
TORSDOF 5
ENDMDL
MODEL 4
REMARK VINA RESULT:    -6.748      6.939      9.831
REMARK INTER + INTRA:          -9.199
REMARK INTER:                  -8.636
REMARK INTRA:                  -0.563
REMARK UNBOUND:                -0.479
REMARK SMILES CC(C)CCC(=O)NNC(=O)N[C@H]1CCC[C@@H](C)[C@H]1C
REMARK SMILES IDX 8 1 6 2 7 3 9 5 12 6 10 7 11 8 13 11 17 12 16 13 19 14 15 15
REMARK SMILES IDX 14 16 18 17 20 18 5 19 4 20 2 21 1 22 3 23
REMARK H PARENT 8 4 12 9 9 10
ROOT
ATOM      1  N   UNL     1      48.039  57.225  20.536  1.00  0.00    -0.266 N 
ATOM      2  C   UNL     1      49.078  57.398  21.436  1.00  0.00    +0.238 C 
ATOM      3  O   UNL     1      49.107  58.332  22.235  1.00  0.00    -0.273 OA
ATOM      4  H   UNL     1      48.213  56.705  19.676  1.00  0.00    +0.191 HD
ENDROOT
BRANCH   1   5
ATOM      5  N   UNL     1      47.178  58.340  20.364  1.00  0.00    -0.249 N 
ATOM      6  N   UNL     1      46.629  60.211  19.181  1.00  0.00    -0.334 N 
ATOM      7  C   UNL     1      47.343  59.038  19.181  1.00  0.00    +0.333 C 
ATOM      8  O   UNL     1      48.041  58.634  18.258  1.00  0.00    -0.247 OA
ATOM      9  H   UNL     1      45.808  60.191  19.769  1.00  0.00    +0.165 HD
ATOM     10  H   UNL     1      47.106  58.916  21.203  1.00  0.00    +0.193 HD
BRANCH   6  11
ATOM     11  C   UNL     1      46.570  61.060  17.995  1.00  0.00    +0.087 C 
ATOM     12  C   UNL     1      46.030  63.425  17.245  1.00  0.00    -0.009 C 
ATOM     13  C   UNL     1      44.518  63.148  17.201  1.00  0.00    +0.004 C 
ATOM     14  C   UNL     1      46.737  62.575  18.329  1.00  0.00    +0.011 C 
ATOM     15  C   UNL     1      44.157  61.683  17.457  1.00  0.00    +0.002 C 
ATOM     16  C   UNL     1      45.316  60.742  17.154  1.00  0.00    +0.025 C 
ATOM     17  C   UNL     1      46.301  64.926  17.368  1.00  0.00    +0.008 C 
ATOM     18  C   UNL     1      46.311  62.961  19.754  1.00  0.00    +0.010 C 
ENDBRANCH   6  11
ENDBRANCH   1   5
BRANCH   2  19
ATOM     19  C   UNL     1      50.121  56.301  21.352  1.00  0.00    +0.102 C 
BRANCH  19  20
ATOM     20  C   UNL     1      51.322  56.511  22.278  1.00  0.00    +0.013 C 
BRANCH  20  21
ATOM     21  C   UNL     1      52.612  56.942  21.552  1.00  0.00    -0.017 C 
ATOM     22  C   UNL     1      52.783  58.460  21.660  1.00  0.00    +0.007 C 
ATOM     23  C   UNL     1      52.644  56.527  20.082  1.00  0.00    +0.007 C 
ENDBRANCH  20  21
ENDBRANCH  19  20
ENDBRANCH   2  19
TORSDOF 5
ENDMDL
MODEL 5
REMARK VINA RESULT:    -6.637      4.410      6.376
REMARK INTER + INTRA:          -9.056
REMARK INTER:                  -8.796
REMARK INTRA:                  -0.260
REMARK UNBOUND:                -0.479
REMARK SMILES CC(C)CCC(=O)NNC(=O)N[C@H]1CCC[C@@H](C)[C@H]1C
REMARK SMILES IDX 8 1 6 2 7 3 9 5 12 6 10 7 11 8 13 11 17 12 16 13 19 14 15 15
REMARK SMILES IDX 14 16 18 17 20 18 5 19 4 20 2 21 1 22 3 23
REMARK H PARENT 8 4 12 9 9 10
ROOT
ATOM      1  N   UNL     1      48.927  58.033  19.760  1.00  0.00    -0.266 N 
ATOM      2  C   UNL     1      47.638  58.535  19.825  1.00  0.00    +0.238 C 
ATOM      3  O   UNL     1      46.836  58.178  20.685  1.00  0.00    -0.273 OA
ATOM      4  H   UNL     1      49.418  58.048  18.865  1.00  0.00    +0.191 HD
ENDROOT
BRANCH   1   5
ATOM      5  N   UNL     1      49.175  56.865  20.527  1.00  0.00    -0.249 N 
ATOM      6  N   UNL     1      50.342  54.924  20.796  1.00  0.00    -0.334 N 
ATOM      7  C   UNL     1      50.289  56.136  20.152  1.00  0.00    +0.333 C 
ATOM      8  O   UNL     1      51.117  56.547  19.345  1.00  0.00    -0.247 OA
ATOM      9  H   UNL     1      49.883  54.918  21.696  1.00  0.00    +0.165 HD
ATOM     10  H   UNL     1      48.331  56.317  20.692  1.00  0.00    +0.193 HD
BRANCH   6  11
ATOM     11  C   UNL     1      51.486  54.032  20.634  1.00  0.00    +0.087 C 
ATOM     12  C   UNL     1      52.193  51.856  19.531  1.00  0.00    -0.009 C 
ATOM     13  C   UNL     1      51.605  51.001  20.667  1.00  0.00    +0.004 C 
ATOM     14  C   UNL     1      51.400  53.171  19.335  1.00  0.00    +0.011 C 
ATOM     15  C   UNL     1      51.082  51.825  21.845  1.00  0.00    +0.002 C 
ATOM     16  C   UNL     1      51.724  53.204  21.914  1.00  0.00    +0.025 C 
ATOM     17  C   UNL     1      52.338  51.029  18.252  1.00  0.00    +0.008 C 
ATOM     18  C   UNL     1      49.968  52.929  18.829  1.00  0.00    +0.010 C 
ENDBRANCH   6  11
ENDBRANCH   1   5
BRANCH   2  19
ATOM     19  C   UNL     1      47.358  59.586  18.768  1.00  0.00    +0.102 C 
BRANCH  19  20
ATOM     20  C   UNL     1      46.262  60.582  19.153  1.00  0.00    +0.013 C 
BRANCH  20  21
ATOM     21  C   UNL     1      46.733  62.049  19.212  1.00  0.00    -0.017 C 
ATOM     22  C   UNL     1      45.648  62.914  19.860  1.00  0.00    +0.007 C 
ATOM     23  C   UNL     1      47.096  62.622  17.843  1.00  0.00    +0.007 C 
ENDBRANCH  20  21
ENDBRANCH  19  20
ENDBRANCH   2  19
TORSDOF 5
ENDMDL
