MODEL 1
REMARK VINA RESULT:    -7.851      0.000      0.000
REMARK INTER + INTRA:         -11.953
REMARK INTER:                 -11.523
REMARK INTRA:                  -0.431
REMARK UNBOUND:                -0.431
REMARK SMILES CCOCCCNC(=O)NNC(=O)[C@H]1C[C@@H]1c1ccccc1
REMARK SMILES IDX 5 1 4 2 3 3 2 4 1 5 6 6 7 7 8 8 9 9 10 10 11 13 12 14 13 15
REMARK SMILES IDX 14 17 15 18 16 19 17 20 18 21 22 22 19 23 21 24 20 25
REMARK H PARENT 7 11 10 12 11 16
ROOT
ATOM      1  C   UNL     1      48.440  49.758  14.762  1.00  0.00    +0.050 C 
ENDROOT
BRANCH   1   2
ATOM      2  C   UNL     1      47.369  48.675  14.801  1.00  0.00    +0.162 C 
BRANCH   2   3
ATOM      3  O   UNL     1      47.268  48.159  16.127  1.00  0.00    -0.382 OA
BRANCH   3   4
ATOM      4  C   UNL     1      45.931  48.115  16.618  1.00  0.00    +0.156 C 
ATOM      5  C   UNL     1      45.574  49.354  17.417  1.00  0.00    +0.035 C 
ENDBRANCH   3   4
ENDBRANCH   2   3
ENDBRANCH   1   2
BRANCH   1   6
ATOM      6  C   UNL     1      49.740  49.300  15.422  1.00  0.00    +0.120 C 
BRANCH   6   7
ATOM      7  N   UNL     1      50.391  50.379  16.142  1.00  0.00    -0.337 N 
ATOM      8  C   UNL     1      49.975  50.732  17.399  1.00  0.00    +0.333 C 
ATOM      9  O   UNL     1      49.016  50.240  17.987  1.00  0.00    -0.247 OA
ATOM     10  N   UNL     1      50.751  51.736  17.946  1.00  0.00    -0.249 N 
ATOM     11  H   UNL     1      51.359  50.567  15.920  1.00  0.00    +0.165 HD
ATOM     12  H   UNL     1      51.147  52.405  17.284  1.00  0.00    +0.193 HD
BRANCH  10  13
ATOM     13  N   UNL     1      50.193  52.361  19.095  1.00  0.00    -0.266 N 
ATOM     14  C   UNL     1      51.072  52.630  20.126  1.00  0.00    +0.242 C 
ATOM     15  O   UNL     1      52.170  52.096  20.248  1.00  0.00    -0.273 OA
ATOM     16  H   UNL     1      49.493  53.067  18.870  1.00  0.00    +0.191 HD
BRANCH  14  17
ATOM     17  C   UNL     1      50.639  53.694  21.058  1.00  0.00    +0.088 C 
ATOM     18  C   UNL     1      51.598  54.481  21.909  1.00  0.00    +0.023 C 
ATOM     19  C   UNL     1      50.952  55.141  20.716  1.00  0.00    +0.032 C 
BRANCH  19  20
ATOM     20  C   UNL     1      49.867  56.178  20.876  1.00  0.00    -0.044 A 
ATOM     21  C   UNL     1      49.973  57.240  21.791  1.00  0.00    +0.004 A 
ATOM     22  C   UNL     1      48.717  56.133  20.069  1.00  0.00    +0.004 A 
ATOM     23  C   UNL     1      48.975  58.210  21.900  1.00  0.00    +0.000 A 
ATOM     24  C   UNL     1      47.715  57.101  20.170  1.00  0.00    +0.000 A 
ATOM     25  C   UNL     1      47.846  58.141  21.087  1.00  0.00    +0.000 A 
ENDBRANCH  19  20
ENDBRANCH  14  17
ENDBRANCH  10  13
ENDBRANCH   6   7
ENDBRANCH   1   6
TORSDOF 8
ENDMDL
MODEL 2
REMARK VINA RESULT:    -7.474      1.704      2.214
REMARK INTER + INTRA:         -11.400
REMARK INTER:                 -10.554
REMARK INTRA:                  -0.846
REMARK UNBOUND:                -0.431
REMARK SMILES CCOCCCNC(=O)NNC(=O)[C@H]1C[C@@H]1c1ccccc1
REMARK SMILES IDX 5 1 4 2 3 3 2 4 1 5 6 6 7 7 8 8 9 9 10 10 11 13 12 14 13 15
REMARK SMILES IDX 14 17 15 18 16 19 17 20 18 21 22 22 19 23 21 24 20 25
REMARK H PARENT 7 11 10 12 11 16
ROOT
ATOM      1  C   UNL     1      48.025  47.914  15.542  1.00  0.00    +0.050 C 
ENDROOT
BRANCH   1   2
ATOM      2  C   UNL     1      47.445  49.323  15.564  1.00  0.00    +0.162 C 
BRANCH   2   3
ATOM      3  O   UNL     1      48.474  50.261  15.251  1.00  0.00    -0.382 OA
BRANCH   3   4
ATOM      4  C   UNL     1      48.431  51.439  16.054  1.00  0.00    +0.156 C 
ATOM      5  C   UNL     1      47.272  51.421  17.032  1.00  0.00    +0.035 C 
ENDBRANCH   3   4
ENDBRANCH   2   3
ENDBRANCH   1   2
BRANCH   1   6
ATOM      6  C   UNL     1      48.487  47.464  16.927  1.00  0.00    +0.120 C 
BRANCH   6   7
ATOM      7  N   UNL     1      49.478  48.365  17.487  1.00  0.00    -0.337 N 
ATOM      8  C   UNL     1      49.273  48.964  18.701  1.00  0.00    +0.333 C 
ATOM      9  O   UNL     1      48.252  48.858  19.375  1.00  0.00    -0.247 OA
ATOM     10  N   UNL     1      50.349  49.736  19.094  1.00  0.00    -0.249 N 
ATOM     11  H   UNL     1      50.440  48.221  17.213  1.00  0.00    +0.165 HD
ATOM     12  H   UNL     1      50.883  50.174  18.342  1.00  0.00    +0.193 HD
BRANCH  10  13
ATOM     13  N   UNL     1      50.082  50.625  20.172  1.00  0.00    -0.266 N 
ATOM     14  C   UNL     1      51.153  51.375  20.617  1.00  0.00    +0.242 C 
ATOM     15  O   UNL     1      52.326  51.102  20.385  1.00  0.00    -0.273 OA
ATOM     16  H   UNL     1      49.176  51.086  20.100  1.00  0.00    +0.191 HD
BRANCH  14  17
ATOM     17  C   UNL     1      50.793  52.614  21.343  1.00  0.00    +0.088 C 
ATOM     18  C   UNL     1      51.801  53.462  22.069  1.00  0.00    +0.023 C 
ATOM     19  C   UNL     1      51.221  53.952  20.766  1.00  0.00    +0.032 C 
BRANCH  19  20
ATOM     20  C   UNL     1      50.219  55.079  20.719  1.00  0.00    -0.044 A 
ATOM     21  C   UNL     1      49.076  55.034  19.902  1.00  0.00    +0.004 A 
ATOM     22  C   UNL     1      50.381  56.209  21.539  1.00  0.00    +0.004 A 
ATOM     23  C   UNL     1      48.141  56.071  19.897  1.00  0.00    +0.000 A 
ATOM     24  C   UNL     1      49.449  57.249  21.543  1.00  0.00    +0.000 A 
ATOM     25  C   UNL     1      48.327  57.178  20.721  1.00  0.00    +0.000 A 
ENDBRANCH  19  20
ENDBRANCH  14  17
ENDBRANCH  10  13
ENDBRANCH   6   7
ENDBRANCH   1   6
TORSDOF 8
ENDMDL
MODEL 3
REMARK VINA RESULT:    -7.199      2.422      8.160
REMARK INTER + INTRA:         -10.996
REMARK INTER:                 -10.660
REMARK INTRA:                  -0.336
REMARK UNBOUND:                -0.431
REMARK SMILES CCOCCCNC(=O)NNC(=O)[C@H]1C[C@@H]1c1ccccc1
REMARK SMILES IDX 5 1 4 2 3 3 2 4 1 5 6 6 7 7 8 8 9 9 10 10 11 13 12 14 13 15
REMARK SMILES IDX 14 17 15 18 16 19 17 20 18 21 22 22 19 23 21 24 20 25
REMARK H PARENT 7 11 10 12 11 16
ROOT
ATOM      1  C   UNL     1      52.558  57.516  21.697  1.00  0.00    +0.050 C 
ENDROOT
BRANCH   1   2
ATOM      2  C   UNL     1      51.155  57.126  22.150  1.00  0.00    +0.162 C 
BRANCH   2   3
ATOM      3  O   UNL     1      50.195  57.848  21.381  1.00  0.00    -0.382 OA
BRANCH   3   4
ATOM      4  C   UNL     1      49.101  57.046  20.942  1.00  0.00    +0.156 C 
ATOM      5  C   UNL     1      47.808  57.835  20.867  1.00  0.00    +0.035 C 
ENDBRANCH   3   4
ENDBRANCH   2   3
ENDBRANCH   1   2
BRANCH   1   6
ATOM      6  C   UNL     1      53.004  56.721  20.470  1.00  0.00    +0.120 C 
BRANCH   6   7
ATOM      7  N   UNL     1      52.410  55.397  20.438  1.00  0.00    -0.337 N 
ATOM      8  C   UNL     1      51.655  54.995  19.367  1.00  0.00    +0.333 C 
ATOM      9  O   UNL     1      51.365  55.701  18.406  1.00  0.00    -0.247 OA
ATOM     10  N   UNL     1      51.227  53.687  19.489  1.00  0.00    -0.249 N 
ATOM     11  H   UNL     1      52.877  54.667  20.958  1.00  0.00    +0.165 HD
ATOM     12  H   UNL     1      51.059  53.359  20.442  1.00  0.00    +0.193 HD
BRANCH  10  13
ATOM     13  N   UNL     1      50.194  53.312  18.586  1.00  0.00    -0.266 N 
ATOM     14  C   UNL     1      49.919  51.961  18.507  1.00  0.00    +0.242 C 
ATOM     15  O   UNL     1      50.685  51.082  18.889  1.00  0.00    -0.273 OA
ATOM     16  H   UNL     1      49.406  53.959  18.583  1.00  0.00    +0.191 HD
BRANCH  14  17
ATOM     17  C   UNL     1      48.572  51.623  17.997  1.00  0.00    +0.088 C 
ATOM     18  C   UNL     1      48.226  51.617  16.533  1.00  0.00    +0.023 C 
ATOM     19  C   UNL     1      48.373  50.307  17.266  1.00  0.00    +0.032 C 
BRANCH  19  20
ATOM     20  C   UNL     1      47.176  49.455  17.613  1.00  0.00    -0.044 A 
ATOM     21  C   UNL     1      47.176  48.570  18.705  1.00  0.00    +0.004 A 
ATOM     22  C   UNL     1      45.991  49.557  16.864  1.00  0.00    +0.004 A 
ATOM     23  C   UNL     1      46.048  47.815  19.032  1.00  0.00    +0.000 A 
ATOM     24  C   UNL     1      44.857  48.808  17.186  1.00  0.00    +0.000 A 
ATOM     25  C   UNL     1      44.887  47.937  18.273  1.00  0.00    +0.000 A 
ENDBRANCH  19  20
ENDBRANCH  14  17
ENDBRANCH  10  13
ENDBRANCH   6   7
ENDBRANCH   1   6
TORSDOF 8
ENDMDL
MODEL 4
REMARK VINA RESULT:    -7.141      2.541      8.654
REMARK INTER + INTRA:         -10.912
REMARK INTER:                 -10.225
REMARK INTRA:                  -0.687
REMARK UNBOUND:                -0.431
REMARK SMILES CCOCCCNC(=O)NNC(=O)[C@H]1C[C@@H]1c1ccccc1
REMARK SMILES IDX 5 1 4 2 3 3 2 4 1 5 6 6 7 7 8 8 9 9 10 10 11 13 12 14 13 15
REMARK SMILES IDX 14 17 15 18 16 19 17 20 18 21 22 22 19 23 21 24 20 25
REMARK H PARENT 7 11 10 12 11 16
ROOT
ATOM      1  C   UNL     1      49.345  58.018  21.754  1.00  0.00    +0.050 C 
ENDROOT
BRANCH   1   2
ATOM      2  C   UNL     1      50.777  57.496  21.761  1.00  0.00    +0.162 C 
BRANCH   2   3
ATOM      3  O   UNL     1      51.304  57.550  20.436  1.00  0.00    -0.382 OA
BRANCH   3   4
ATOM      4  C   UNL     1      52.514  56.812  20.276  1.00  0.00    +0.156 C 
ATOM      5  C   UNL     1      53.725  57.588  20.758  1.00  0.00    +0.035 C 
ENDBRANCH   3   4
ENDBRANCH   2   3
ENDBRANCH   1   2
BRANCH   1   6
ATOM      6  C   UNL     1      48.575  57.558  20.516  1.00  0.00    +0.120 C 
BRANCH   6   7
ATOM      7  N   UNL     1      48.597  56.114  20.370  1.00  0.00    -0.337 N 
ATOM      8  C   UNL     1      48.652  55.538  19.129  1.00  0.00    +0.333 C 
ATOM      9  O   UNL     1      48.623  56.151  18.066  1.00  0.00    -0.247 OA
ATOM     10  N   UNL     1      48.726  54.160  19.193  1.00  0.00    -0.249 N 
ATOM     11  H   UNL     1      48.987  55.578  21.133  1.00  0.00    +0.165 HD
ATOM     12  H   UNL     1      48.255  53.724  19.988  1.00  0.00    +0.193 HD
BRANCH  10  13
ATOM     13  N   UNL     1      48.469  53.492  17.964  1.00  0.00    -0.266 N 
ATOM     14  C   UNL     1      49.391  52.533  17.591  1.00  0.00    +0.242 C 
ATOM     15  O   UNL     1      50.526  52.457  18.050  1.00  0.00    -0.273 OA
ATOM     16  H   UNL     1      47.482  53.285  17.817  1.00  0.00    +0.191 HD
BRANCH  14  17
ATOM     17  C   UNL     1      48.890  51.518  16.638  1.00  0.00    +0.088 C 
ATOM     18  C   UNL     1      49.713  50.345  16.180  1.00  0.00    +0.023 C 
ATOM     19  C   UNL     1      48.579  50.122  17.149  1.00  0.00    +0.032 C 
BRANCH  19  20
ATOM     20  C   UNL     1      47.291  49.461  16.723  1.00  0.00    -0.044 A 
ATOM     21  C   UNL     1      47.116  48.915  15.440  1.00  0.00    +0.004 A 
ATOM     22  C   UNL     1      46.225  49.332  17.630  1.00  0.00    +0.004 A 
ATOM     23  C   UNL     1      45.930  48.276  15.074  1.00  0.00    +0.000 A 
ATOM     24  C   UNL     1      45.036  48.691  17.274  1.00  0.00    +0.000 A 
ATOM     25  C   UNL     1      44.891  48.162  15.994  1.00  0.00    +0.000 A 
ENDBRANCH  19  20
ENDBRANCH  14  17
ENDBRANCH  10  13
ENDBRANCH   6   7
ENDBRANCH   1   6
TORSDOF 8
ENDMDL
MODEL 5
REMARK VINA RESULT:    -7.114      2.182      8.200
REMARK INTER + INTRA:         -10.871
REMARK INTER:                 -10.531
REMARK INTRA:                  -0.341
REMARK UNBOUND:                -0.431
REMARK SMILES CCOCCCNC(=O)NNC(=O)[C@H]1C[C@@H]1c1ccccc1
REMARK SMILES IDX 5 1 4 2 3 3 2 4 1 5 6 6 7 7 8 8 9 9 10 10 11 13 12 14 13 15
REMARK SMILES IDX 14 17 15 18 16 19 17 20 18 21 22 22 19 23 21 24 20 25
REMARK H PARENT 7 11 10 12 11 16
ROOT
ATOM      1  C   UNL     1      51.163  56.078  19.175  1.00  0.00    +0.050 C 
ENDROOT
BRANCH   1   2
ATOM      2  C   UNL     1      50.851  56.915  20.410  1.00  0.00    +0.162 C 
BRANCH   2   3
ATOM      3  O   UNL     1      50.418  56.057  21.464  1.00  0.00    -0.382 OA
BRANCH   3   4
ATOM      4  C   UNL     1      51.483  55.585  22.286  1.00  0.00    +0.156 C 
ATOM      5  C   UNL     1      51.575  54.071  22.289  1.00  0.00    +0.035 C 
ENDBRANCH   3   4
ENDBRANCH   2   3
ENDBRANCH   1   2
BRANCH   1   6
ATOM      6  C   UNL     1      50.136  54.966  18.964  1.00  0.00    +0.120 C 
BRANCH   6   7
ATOM      7  N   UNL     1      50.768  53.690  18.684  1.00  0.00    -0.337 N 
ATOM      8  C   UNL     1      50.087  52.702  18.023  1.00  0.00    +0.333 C 
ATOM      9  O   UNL     1      48.911  52.769  17.676  1.00  0.00    -0.247 OA
ATOM     10  N   UNL     1      50.870  51.587  17.796  1.00  0.00    -0.249 N 
ATOM     11  H   UNL     1      51.774  53.683  18.591  1.00  0.00    +0.165 HD
ATOM     12  H   UNL     1      51.586  51.393  18.499  1.00  0.00    +0.193 HD
BRANCH  10  13
ATOM     13  N   UNL     1      50.150  50.423  17.407  1.00  0.00    -0.266 N 
ATOM     14  C   UNL     1      49.672  49.634  18.435  1.00  0.00    +0.242 C 
ATOM     15  O   UNL     1      50.086  49.685  19.589  1.00  0.00    -0.273 OA
ATOM     16  H   UNL     1      49.544  50.574  16.602  1.00  0.00    +0.191 HD
BRANCH  14  17
ATOM     17  C   UNL     1      48.537  48.756  18.076  1.00  0.00    +0.088 C 
ATOM     18  C   UNL     1      47.319  48.592  18.943  1.00  0.00    +0.023 C 
ATOM     19  C   UNL     1      47.218  49.391  17.668  1.00  0.00    +0.032 C 
BRANCH  19  20
ATOM     20  C   UNL     1      46.498  48.858  16.454  1.00  0.00    -0.044 A 
ATOM     21  C   UNL     1      47.115  48.765  15.195  1.00  0.00    +0.004 A 
ATOM     22  C   UNL     1      45.176  48.391  16.561  1.00  0.00    +0.004 A 
ATOM     23  C   UNL     1      46.444  48.237  14.090  1.00  0.00    +0.000 A 
ATOM     24  C   UNL     1      44.498  47.858  15.462  1.00  0.00    +0.000 A 
ATOM     25  C   UNL     1      45.136  47.780  14.226  1.00  0.00    +0.000 A 
ENDBRANCH  19  20
ENDBRANCH  14  17
ENDBRANCH  10  13
ENDBRANCH   6   7
ENDBRANCH   1   6
TORSDOF 8
ENDMDL
