MODEL 1
REMARK VINA RESULT:    -6.322      0.000      0.000
REMARK INTER + INTRA:          -7.946
REMARK INTER:                  -7.615
REMARK INTRA:                  -0.330
REMARK UNBOUND:                -0.330
REMARK SMILES CNC(=O)[C@@H]1C[C@H]([NH3+])CN1C(=O)[C@@H]1CSCN1C
REMARK SMILES IDX 5 1 6 2 7 3 9 4 10 5 3 6 2 7 4 8 1 9 11 11 12 12 13 13 14 14
REMARK SMILES IDX 17 15 15 16 16 17 18 18 8 19
REMARK H PARENT 2 10 8 20 8 21 8 22
ROOT
ATOM      1  C   UNL     1      52.183  51.707  19.060  1.00  0.00    +0.180 C 
ATOM      2  C   UNL     1      52.811  50.593  19.913  1.00  0.00    +0.102 C 
ATOM      3  C   UNL     1      52.150  50.741  21.286  1.00  0.00    +0.203 C 
ATOM      4  C   UNL     1      51.946  52.256  21.406  1.00  0.00    +0.185 C 
ATOM      5  N   UNL     1      51.788  52.726  20.035  1.00  0.00    -0.323 N 
ENDROOT
BRANCH   1   6
ATOM      6  C   UNL     1      50.899  51.222  18.361  1.00  0.00    +0.242 C 
ATOM      7  N   UNL     1      51.083  50.726  17.097  1.00  0.00    -0.357 N 
ATOM      8  O   UNL     1      49.794  51.400  18.883  1.00  0.00    -0.273 OA
ATOM      9  C   UNL     1      49.968  50.374  16.252  1.00  0.00    +0.142 C 
ATOM     10  H   UNL     1      51.944  51.013  16.622  1.00  0.00    +0.163 HD
ENDBRANCH   1   6
BRANCH   5  11
ATOM     11  C   UNL     1      51.532  54.024  19.621  1.00  0.00    +0.241 C 
ATOM     12  O   UNL     1      51.840  54.374  18.480  1.00  0.00    -0.273 OA
BRANCH  11  13
ATOM     13  C   UNL     1      50.818  54.966  20.606  1.00  0.00    +0.157 C 
ATOM     14  C   UNL     1      49.819  55.885  19.907  1.00  0.00    +0.100 C 
ATOM     15  N   UNL     1      51.771  55.788  21.415  1.00  0.00    -0.285 NA
ATOM     16  S   UNL     1      49.455  57.136  21.163  1.00  0.00    -0.144 SA
ATOM     17  C   UNL     1      50.913  56.732  22.160  1.00  0.00    +0.155 C 
ATOM     18  C   UNL     1      52.726  56.542  20.587  1.00  0.00    +0.107 C 
ENDBRANCH  11  13
ENDBRANCH   5  11
BRANCH   3  19
ATOM     19  N   UNL     1      50.853  50.005  21.320  1.00  0.00    -0.354 N 
ATOM     20  H   UNL     1      50.701  49.398  20.506  1.00  0.00    +0.344 HD
ATOM     21  H   UNL     1      50.768  49.400  22.167  1.00  0.00    +0.344 HD
ATOM     22  H   UNL     1      50.052  50.645  21.388  1.00  0.00    +0.344 HD
ENDBRANCH   3  19
TORSDOF 4
ENDMDL
MODEL 2
REMARK VINA RESULT:    -6.024      3.535      5.463
REMARK INTER + INTRA:          -7.587
REMARK INTER:                  -7.102
REMARK INTRA:                  -0.486
REMARK UNBOUND:                -0.330
REMARK SMILES CNC(=O)[C@@H]1C[C@H]([NH3+])CN1C(=O)[C@@H]1CSCN1C
REMARK SMILES IDX 5 1 6 2 7 3 9 4 10 5 3 6 2 7 4 8 1 9 11 11 12 12 13 13 14 14
REMARK SMILES IDX 17 15 15 16 16 17 18 18 8 19
REMARK H PARENT 2 10 8 20 8 21 8 22
ROOT
ATOM      1  C   UNL     1      52.194  56.468  20.558  1.00  0.00    +0.180 C 
ATOM      2  C   UNL     1      53.639  56.976  20.430  1.00  0.00    +0.102 C 
ATOM      3  C   UNL     1      53.746  58.101  21.463  1.00  0.00    +0.203 C 
ATOM      4  C   UNL     1      52.341  58.718  21.442  1.00  0.00    +0.185 C 
ATOM      5  N   UNL     1      51.453  57.623  21.072  1.00  0.00    -0.323 N 
ENDROOT
BRANCH   1   6
ATOM      6  C   UNL     1      52.083  55.350  21.611  1.00  0.00    +0.242 C 
ATOM      7  N   UNL     1      51.893  54.093  21.098  1.00  0.00    -0.357 N 
ATOM      8  O   UNL     1      52.047  55.621  22.815  1.00  0.00    -0.273 OA
ATOM      9  C   UNL     1      51.618  52.962  21.951  1.00  0.00    +0.142 C 
ATOM     10  H   UNL     1      51.525  54.048  20.145  1.00  0.00    +0.163 HD
ENDBRANCH   1   6
BRANCH   5  11
ATOM     11  C   UNL     1      50.072  57.669  20.964  1.00  0.00    +0.241 C 
ATOM     12  O   UNL     1      49.380  57.709  21.983  1.00  0.00    -0.273 OA
BRANCH  11  13
ATOM     13  C   UNL     1      49.462  57.719  19.553  1.00  0.00    +0.157 C 
ATOM     14  C   UNL     1      48.129  58.466  19.524  1.00  0.00    +0.100 C 
ATOM     15  N   UNL     1      49.285  56.362  18.950  1.00  0.00    -0.285 NA
ATOM     16  S   UNL     1      47.438  58.021  17.912  1.00  0.00    -0.144 SA
ATOM     17  C   UNL     1      48.542  56.601  17.696  1.00  0.00    +0.155 C 
ATOM     18  C   UNL     1      48.516  55.446  19.808  1.00  0.00    +0.107 C 
ENDBRANCH  11  13
ENDBRANCH   5  11
BRANCH   3  19
ATOM     19  N   UNL     1      54.084  57.543  22.804  1.00  0.00    -0.354 N 
ATOM     20  H   UNL     1      54.998  57.846  23.160  1.00  0.00    +0.344 HD
ATOM     21  H   UNL     1      53.377  57.806  23.526  1.00  0.00    +0.344 HD
ATOM     22  H   UNL     1      54.073  56.515  22.805  1.00  0.00    +0.344 HD
ENDBRANCH   3  19
TORSDOF 4
ENDMDL
MODEL 3
REMARK VINA RESULT:    -5.853      2.828      5.847
REMARK INTER + INTRA:          -7.381
REMARK INTER:                  -7.137
REMARK INTRA:                  -0.244
REMARK UNBOUND:                -0.330
REMARK SMILES CNC(=O)[C@@H]1C[C@H]([NH3+])CN1C(=O)[C@@H]1CSCN1C
REMARK SMILES IDX 5 1 6 2 7 3 9 4 10 5 3 6 2 7 4 8 1 9 11 11 12 12 13 13 14 14
REMARK SMILES IDX 17 15 15 16 16 17 18 18 8 19
REMARK H PARENT 2 10 8 20 8 21 8 22
ROOT
ATOM      1  C   UNL     1      51.344  55.749  19.899  1.00  0.00    +0.180 C 
ATOM      2  C   UNL     1      50.244  56.408  19.052  1.00  0.00    +0.102 C 
ATOM      3  C   UNL     1      48.937  56.029  19.754  1.00  0.00    +0.203 C 
ATOM      4  C   UNL     1      49.236  54.626  20.297  1.00  0.00    +0.185 C 
ATOM      5  N   UNL     1      50.674  54.609  20.531  1.00  0.00    -0.323 N 
ENDROOT
BRANCH   1   6
ATOM      6  C   UNL     1      51.819  56.682  21.028  1.00  0.00    +0.242 C 
ATOM      7  N   UNL     1      53.063  57.227  20.839  1.00  0.00    -0.357 N 
ATOM      8  O   UNL     1      51.157  56.805  22.063  1.00  0.00    -0.273 OA
ATOM      9  C   UNL     1      53.715  57.998  21.870  1.00  0.00    +0.142 C 
ATOM     10  H   UNL     1      53.672  56.737  20.179  1.00  0.00    +0.163 HD
ENDBRANCH   1   6
BRANCH   5  11
ATOM     11  C   UNL     1      51.421  53.571  21.065  1.00  0.00    +0.241 C 
ATOM     12  O   UNL     1      52.028  53.736  22.125  1.00  0.00    -0.273 OA
BRANCH  11  13
ATOM     13  C   UNL     1      51.415  52.223  20.322  1.00  0.00    +0.157 C 
ATOM     14  C   UNL     1      52.295  51.180  21.008  1.00  0.00    +0.100 C 
ATOM     15  N   UNL     1      51.820  52.351  18.888  1.00  0.00    -0.285 NA
ATOM     16  S   UNL     1      52.457  49.884  19.755  1.00  0.00    -0.144 SA
ATOM     17  C   UNL     1      51.919  50.961  18.400  1.00  0.00    +0.155 C 
ATOM     18  C   UNL     1      53.116  53.026  18.713  1.00  0.00    +0.107 C 
ENDBRANCH  11  13
ENDBRANCH   5  11
BRANCH   3  19
ATOM     19  N   UNL     1      48.639  56.994  20.853  1.00  0.00    -0.354 N 
ATOM     20  H   UNL     1      49.477  57.382  21.300  1.00  0.00    +0.344 HD
ATOM     21  H   UNL     1      48.073  57.804  20.518  1.00  0.00    +0.344 HD
ATOM     22  H   UNL     1      48.059  56.569  21.587  1.00  0.00    +0.344 HD
ENDBRANCH   3  19
TORSDOF 4
ENDMDL
MODEL 4
REMARK VINA RESULT:    -5.694      2.470      4.056
REMARK INTER + INTRA:          -7.189
REMARK INTER:                  -7.113
REMARK INTRA:                  -0.076
REMARK UNBOUND:                -0.330
REMARK SMILES CNC(=O)[C@@H]1C[C@H]([NH3+])CN1C(=O)[C@@H]1CSCN1C
REMARK SMILES IDX 5 1 6 2 7 3 9 4 10 5 3 6 2 7 4 8 1 9 11 11 12 12 13 13 14 14
REMARK SMILES IDX 17 15 15 16 16 17 18 18 8 19
REMARK H PARENT 2 10 8 20 8 21 8 22
ROOT
ATOM      1  C   UNL     1      49.384  49.990  16.808  1.00  0.00    +0.180 C 
ATOM      2  C   UNL     1      48.764  48.585  16.772  1.00  0.00    +0.102 C 
ATOM      3  C   UNL     1      48.477  48.252  18.239  1.00  0.00    +0.203 C 
ATOM      4  C   UNL     1      49.630  48.944  18.977  1.00  0.00    +0.185 C 
ATOM      5  N   UNL     1      49.987  50.082  18.140  1.00  0.00    -0.323 N 
ENDROOT
BRANCH   1   6
ATOM      6  C   UNL     1      48.303  51.083  16.719  1.00  0.00    +0.242 C 
ATOM      7  N   UNL     1      48.777  52.342  16.453  1.00  0.00    -0.357 N 
ATOM      8  O   UNL     1      47.127  50.828  16.996  1.00  0.00    -0.273 OA
ATOM      9  C   UNL     1      47.914  53.498  16.489  1.00  0.00    +0.142 C 
ATOM     10  H   UNL     1      49.766  52.503  16.660  1.00  0.00    +0.163 HD
ENDBRANCH   1   6
BRANCH   5  11
ATOM     11  C   UNL     1      50.948  51.046  18.404  1.00  0.00    +0.241 C 
ATOM     12  O   UNL     1      51.969  51.095  17.716  1.00  0.00    -0.273 OA
BRANCH  11  13
ATOM     13  C   UNL     1      50.665  52.055  19.529  1.00  0.00    +0.157 C 
ATOM     14  C   UNL     1      51.406  53.375  19.324  1.00  0.00    +0.100 C 
ATOM     15  N   UNL     1      50.980  51.513  20.887  1.00  0.00    -0.285 NA
ATOM     16  S   UNL     1      51.260  54.189  20.934  1.00  0.00    -0.144 SA
ATOM     17  C   UNL     1      50.811  52.662  21.799  1.00  0.00    +0.155 C 
ATOM     18  C   UNL     1      52.353  50.997  20.996  1.00  0.00    +0.107 C 
ENDBRANCH  11  13
ENDBRANCH   5  11
BRANCH   3  19
ATOM     19  N   UNL     1      47.152  48.803  18.646  1.00  0.00    -0.354 N 
ATOM     20  H   UNL     1      47.162  49.274  19.557  1.00  0.00    +0.344 HD
ATOM     21  H   UNL     1      46.786  49.492  17.953  1.00  0.00    +0.344 HD
ATOM     22  H   UNL     1      46.429  48.073  18.678  1.00  0.00    +0.344 HD
ENDBRANCH   3  19
TORSDOF 4
ENDMDL
MODEL 5
REMARK VINA RESULT:    -5.454      4.314      6.794
REMARK INTER + INTRA:          -6.901
REMARK INTER:                  -6.520
REMARK INTRA:                  -0.380
REMARK UNBOUND:                -0.330
REMARK SMILES CNC(=O)[C@@H]1C[C@H]([NH3+])CN1C(=O)[C@@H]1CSCN1C
REMARK SMILES IDX 5 1 6 2 7 3 9 4 10 5 3 6 2 7 4 8 1 9 11 11 12 12 13 13 14 14
REMARK SMILES IDX 17 15 15 16 16 17 18 18 8 19
REMARK H PARENT 2 10 8 20 8 21 8 22
ROOT
ATOM      1  C   UNL     1      48.715  51.136  17.304  1.00  0.00    +0.180 C 
ATOM      2  C   UNL     1      49.342  52.465  17.753  1.00  0.00    +0.102 C 
ATOM      3  C   UNL     1      50.586  52.055  18.547  1.00  0.00    +0.203 C 
ATOM      4  C   UNL     1      50.148  50.747  19.217  1.00  0.00    +0.185 C 
ATOM      5  N   UNL     1      49.161  50.171  18.312  1.00  0.00    -0.323 N 
ENDROOT
BRANCH   1   6
ATOM      6  C   UNL     1      49.282  50.677  15.949  1.00  0.00    +0.242 C 
ATOM      7  N   UNL     1      48.350  50.536  14.953  1.00  0.00    -0.357 N 
ATOM      8  O   UNL     1      50.468  50.351  15.841  1.00  0.00    -0.273 OA
ATOM      9  C   UNL     1      48.693  49.969  13.671  1.00  0.00    +0.142 C 
ATOM     10  H   UNL     1      47.380  50.423  15.258  1.00  0.00    +0.163 HD
ENDBRANCH   1   6
BRANCH   5  11
ATOM     11  C   UNL     1      48.503  48.959  18.455  1.00  0.00    +0.241 C 
ATOM     12  O   UNL     1      49.126  47.966  18.835  1.00  0.00    -0.273 OA
BRANCH  11  13
ATOM     13  C   UNL     1      46.990  48.925  18.178  1.00  0.00    +0.157 C 
ATOM     14  C   UNL     1      46.258  47.932  19.078  1.00  0.00    +0.100 C 
ATOM     15  N   UNL     1      46.671  48.629  16.747  1.00  0.00    -0.285 NA
ATOM     16  S   UNL     1      44.639  47.768  18.287  1.00  0.00    -0.144 SA
ATOM     17  C   UNL     1      45.203  48.469  16.715  1.00  0.00    +0.155 C 
ATOM     18  C   UNL     1      47.309  47.397  16.257  1.00  0.00    +0.107 C 
ENDBRANCH  11  13
ENDBRANCH   5  11
BRANCH   3  19
ATOM     19  N   UNL     1      51.742  51.845  17.628  1.00  0.00    -0.354 N 
ATOM     20  H   UNL     1      52.656  51.959  18.080  1.00  0.00    +0.344 HD
ATOM     21  H   UNL     1      51.733  50.892  17.201  1.00  0.00    +0.344 HD
ATOM     22  H   UNL     1      51.709  52.481  16.821  1.00  0.00    +0.344 HD
ENDBRANCH   3  19
TORSDOF 4
ENDMDL
