MODEL 1
REMARK VINA RESULT:    -8.253      0.000      0.000
REMARK INTER + INTRA:         -11.872
REMARK INTER:                 -11.148
REMARK INTRA:                  -0.724
REMARK UNBOUND:                -0.724
REMARK SMILES CNS(=O)(=O)c1cccc([C@H](C)NC(=O)N[C@H]2CC[NH+](C(C)C)C2)c1
REMARK SMILES IDX 12 1 11 2 10 3 9 4 25 5 8 6 6 7 7 8 3 9 4 10 5 11 2 12 1 13
REMARK SMILES IDX 13 15 14 16 15 17 16 18 17 21 18 22 24 23 19 24 20 25 21 27
REMARK SMILES IDX 22 28 23 29
REMARK H PARENT 2 14 13 19 16 20 20 26
ROOT
ATOM      1  C   UNL     1      50.498  49.576  14.312  1.00  0.00    +0.036 C 
ATOM      2  C   UNL     1      49.639  49.899  15.539  1.00  0.00    +0.111 C 
ENDROOT
BRANCH   2   3
ATOM      3  C   UNL     1      48.748  48.748  15.972  1.00  0.00    -0.025 A 
ATOM      4  C   UNL     1      49.302  47.461  16.114  1.00  0.00    +0.006 A 
ATOM      5  C   UNL     1      47.373  48.915  16.215  1.00  0.00    +0.027 A 
ATOM      6  C   UNL     1      48.517  46.378  16.521  1.00  0.00    +0.002 A 
ATOM      7  C   UNL     1      46.590  47.824  16.615  1.00  0.00    +0.082 A 
ATOM      8  C   UNL     1      47.161  46.559  16.788  1.00  0.00    +0.022 A 
BRANCH   7   9
ATOM      9  S   UNL     1      44.870  48.075  16.981  1.00  0.00    +0.240 S 
ATOM     10  O   UNL     1      44.717  49.319  17.700  1.00  0.00    -0.207 OA
ATOM     11  O   UNL     1      44.122  47.785  15.776  1.00  0.00    -0.207 OA
BRANCH   9  12
ATOM     12  N   UNL     1      44.550  46.801  18.036  1.00  0.00    -0.214 NA
ATOM     13  C   UNL     1      44.590  47.074  19.470  1.00  0.00    +0.120 C 
ATOM     14  H   UNL     1      43.791  46.215  17.689  1.00  0.00    +0.141 HD
ENDBRANCH   9  12
ENDBRANCH   7   9
ENDBRANCH   2   3
BRANCH   2  15
ATOM     15  N   UNL     1      50.459  50.319  16.670  1.00  0.00    -0.332 N 
ATOM     16  C   UNL     1      49.988  51.203  17.593  1.00  0.00    +0.315 C 
ATOM     17  O   UNL     1      48.870  51.699  17.596  1.00  0.00    -0.249 OA
ATOM     18  N   UNL     1      50.927  51.493  18.557  1.00  0.00    -0.330 N 
ATOM     19  H   UNL     1      51.459  50.266  16.541  1.00  0.00    +0.165 HD
ATOM     20  H   UNL     1      51.539  50.704  18.733  1.00  0.00    +0.165 HD
BRANCH  18  21
ATOM     21  C   UNL     1      50.510  52.272  19.708  1.00  0.00    +0.144 C 
ATOM     22  C   UNL     1      51.260  51.873  20.969  1.00  0.00    +0.092 C 
ATOM     23  C   UNL     1      50.803  53.782  19.614  1.00  0.00    +0.287 C 
ATOM     24  C   UNL     1      50.956  53.006  21.930  1.00  0.00    +0.264 C 
ATOM     25  N   UNL     1      50.894  54.249  21.066  1.00  0.00    -0.331 N 
ATOM     26  H   UNL     1      49.979  54.680  21.268  1.00  0.00    +0.348 HD
BRANCH  25  27
ATOM     27  C   UNL     1      51.917  55.323  21.384  1.00  0.00    +0.177 C 
ATOM     28  C   UNL     1      51.316  56.319  22.370  1.00  0.00    +0.075 C 
ATOM     29  C   UNL     1      52.449  56.013  20.131  1.00  0.00    +0.075 C 
ENDBRANCH  25  27
ENDBRANCH  18  21
ENDBRANCH   2  15
TORSDOF 6
ENDMDL
MODEL 2
REMARK VINA RESULT:    -8.054      4.331      9.465
REMARK INTER + INTRA:         -11.603
REMARK INTER:                 -11.340
REMARK INTRA:                  -0.263
REMARK UNBOUND:                -0.724
REMARK SMILES CNS(=O)(=O)c1cccc([C@H](C)NC(=O)N[C@H]2CC[NH+](C(C)C)C2)c1
REMARK SMILES IDX 12 1 11 2 10 3 9 4 25 5 8 6 6 7 7 8 3 9 4 10 5 11 2 12 1 13
REMARK SMILES IDX 13 15 14 16 15 17 16 18 17 21 18 22 24 23 19 24 20 25 21 27
REMARK SMILES IDX 22 28 23 29
REMARK H PARENT 2 14 13 19 16 20 20 26
ROOT
ATOM      1  C   UNL     1      47.670  56.753  17.352  1.00  0.00    +0.036 C 
ATOM      2  C   UNL     1      48.863  56.063  18.022  1.00  0.00    +0.111 C 
ENDROOT
BRANCH   2   3
ATOM      3  C   UNL     1      49.257  56.691  19.348  1.00  0.00    -0.025 A 
ATOM      4  C   UNL     1      48.271  57.313  20.138  1.00  0.00    +0.006 A 
ATOM      5  C   UNL     1      50.585  56.698  19.808  1.00  0.00    +0.027 A 
ATOM      6  C   UNL     1      48.591  57.894  21.368  1.00  0.00    +0.002 A 
ATOM      7  C   UNL     1      50.901  57.289  21.039  1.00  0.00    +0.082 A 
ATOM      8  C   UNL     1      49.906  57.870  21.831  1.00  0.00    +0.022 A 
BRANCH   7   9
ATOM      9  S   UNL     1      52.575  57.225  21.630  1.00  0.00    +0.240 S 
ATOM     10  O   UNL     1      53.397  56.551  20.650  1.00  0.00    -0.207 OA
ATOM     11  O   UNL     1      52.908  58.538  22.140  1.00  0.00    -0.207 OA
BRANCH   9  12
ATOM     12  N   UNL     1      52.428  56.232  22.983  1.00  0.00    -0.214 NA
ATOM     13  C   UNL     1      51.708  54.970  22.831  1.00  0.00    +0.120 C 
ATOM     14  H   UNL     1      53.290  56.219  23.528  1.00  0.00    +0.141 HD
ENDBRANCH   9  12
ENDBRANCH   7   9
ENDBRANCH   2   3
BRANCH   2  15
ATOM     15  N   UNL     1      48.612  54.640  18.225  1.00  0.00    -0.332 N 
ATOM     16  C   UNL     1      48.213  53.840  17.198  1.00  0.00    +0.315 C 
ATOM     17  O   UNL     1      48.055  54.198  16.039  1.00  0.00    -0.249 OA
ATOM     18  N   UNL     1      47.998  52.543  17.607  1.00  0.00    -0.330 N 
ATOM     19  H   UNL     1      48.358  54.362  19.163  1.00  0.00    +0.165 HD
ATOM     20  H   UNL     1      48.612  52.285  18.370  1.00  0.00    +0.165 HD
BRANCH  18  21
ATOM     21  C   UNL     1      47.752  51.537  16.591  1.00  0.00    +0.144 C 
ATOM     22  C   UNL     1      49.023  50.803  16.195  1.00  0.00    +0.092 C 
ATOM     23  C   UNL     1      46.828  50.384  17.028  1.00  0.00    +0.287 C 
ATOM     24  C   UNL     1      48.507  49.599  15.432  1.00  0.00    +0.264 C 
ATOM     25  N   UNL     1      47.218  49.212  16.127  1.00  0.00    -0.331 N 
ATOM     26  H   UNL     1      46.501  49.191  15.386  1.00  0.00    +0.348 HD
BRANCH  25  27
ATOM     27  C   UNL     1      47.191  47.827  16.744  1.00  0.00    +0.177 C 
ATOM     28  C   UNL     1      46.609  47.912  18.151  1.00  0.00    +0.075 C 
ATOM     29  C   UNL     1      48.560  47.155  16.733  1.00  0.00    +0.075 C 
ENDBRANCH  25  27
ENDBRANCH  18  21
ENDBRANCH   2  15
TORSDOF 6
ENDMDL
MODEL 3
REMARK VINA RESULT:    -8.046      3.999      9.358
REMARK INTER + INTRA:         -11.592
REMARK INTER:                 -10.885
REMARK INTRA:                  -0.708
REMARK UNBOUND:                -0.724
REMARK SMILES CNS(=O)(=O)c1cccc([C@H](C)NC(=O)N[C@H]2CC[NH+](C(C)C)C2)c1
REMARK SMILES IDX 12 1 11 2 10 3 9 4 25 5 8 6 6 7 7 8 3 9 4 10 5 11 2 12 1 13
REMARK SMILES IDX 13 15 14 16 15 17 16 18 17 21 18 22 24 23 19 24 20 25 21 27
REMARK SMILES IDX 22 28 23 29
REMARK H PARENT 2 14 13 19 16 20 20 26
ROOT
ATOM      1  C   UNL     1      48.108  55.831  16.604  1.00  0.00    +0.036 C 
ATOM      2  C   UNL     1      48.803  54.973  17.667  1.00  0.00    +0.111 C 
ENDROOT
BRANCH   2   3
ATOM      3  C   UNL     1      49.065  55.717  18.965  1.00  0.00    -0.025 A 
ATOM      4  C   UNL     1      48.038  56.493  19.535  1.00  0.00    +0.006 A 
ATOM      5  C   UNL     1      50.312  55.678  19.613  1.00  0.00    +0.027 A 
ATOM      6  C   UNL     1      48.235  57.184  20.735  1.00  0.00    +0.002 A 
ATOM      7  C   UNL     1      50.506  56.379  20.811  1.00  0.00    +0.082 A 
ATOM      8  C   UNL     1      49.466  57.116  21.385  1.00  0.00    +0.022 A 
BRANCH   7   9
ATOM      9  S   UNL     1      52.070  56.259  21.645  1.00  0.00    +0.240 S 
ATOM     10  O   UNL     1      51.939  55.359  22.768  1.00  0.00    -0.207 OA
ATOM     11  O   UNL     1      53.091  56.085  20.633  1.00  0.00    -0.207 OA
BRANCH   9  12
ATOM     12  N   UNL     1      52.272  57.826  22.231  1.00  0.00    -0.214 NA
ATOM     13  C   UNL     1      53.059  58.760  21.431  1.00  0.00    +0.120 C 
ATOM     14  H   UNL     1      51.412  58.176  22.654  1.00  0.00    +0.141 HD
ENDBRANCH   9  12
ENDBRANCH   7   9
ENDBRANCH   2   3
BRANCH   2  15
ATOM     15  N   UNL     1      48.046  53.761  17.956  1.00  0.00    -0.332 N 
ATOM     16  C   UNL     1      48.255  52.613  17.253  1.00  0.00    +0.315 C 
ATOM     17  O   UNL     1      49.081  52.467  16.363  1.00  0.00    -0.249 OA
ATOM     18  N   UNL     1      47.416  51.600  17.657  1.00  0.00    -0.330 N 
ATOM     19  H   UNL     1      47.138  53.893  18.379  1.00  0.00    +0.165 HD
ATOM     20  H   UNL     1      47.190  51.671  18.642  1.00  0.00    +0.165 HD
BRANCH  18  21
ATOM     21  C   UNL     1      47.648  50.267  17.131  1.00  0.00    +0.144 C 
ATOM     22  C   UNL     1      48.300  49.354  18.157  1.00  0.00    +0.092 C 
ATOM     23  C   UNL     1      46.375  49.485  16.755  1.00  0.00    +0.287 C 
ATOM     24  C   UNL     1      48.123  47.973  17.558  1.00  0.00    +0.264 C 
ATOM     25  N   UNL     1      46.780  48.015  16.859  1.00  0.00    -0.331 N 
ATOM     26  H   UNL     1      46.964  47.717  15.889  1.00  0.00    +0.348 HD
BRANCH  25  27
ATOM     27  C   UNL     1      45.736  47.046  17.379  1.00  0.00    +0.177 C 
ATOM     28  C   UNL     1      44.567  46.988  16.401  1.00  0.00    +0.075 C 
ATOM     29  C   UNL     1      45.278  47.384  18.794  1.00  0.00    +0.075 C 
ENDBRANCH  25  27
ENDBRANCH  18  21
ENDBRANCH   2  15
TORSDOF 6
ENDMDL
MODEL 4
REMARK VINA RESULT:    -7.861      1.791      2.835
REMARK INTER + INTRA:         -11.342
REMARK INTER:                 -10.652
REMARK INTRA:                  -0.690
REMARK UNBOUND:                -0.724
REMARK SMILES CNS(=O)(=O)c1cccc([C@H](C)NC(=O)N[C@H]2CC[NH+](C(C)C)C2)c1
REMARK SMILES IDX 12 1 11 2 10 3 9 4 25 5 8 6 6 7 7 8 3 9 4 10 5 11 2 12 1 13
REMARK SMILES IDX 13 15 14 16 15 17 16 18 17 21 18 22 24 23 19 24 20 25 21 27
REMARK SMILES IDX 22 28 23 29
REMARK H PARENT 2 14 13 19 16 20 20 26
ROOT
ATOM      1  C   UNL     1      50.155  48.909  19.936  1.00  0.00    +0.036 C 
ATOM      2  C   UNL     1      50.227  49.910  18.778  1.00  0.00    +0.111 C 
ENDROOT
BRANCH   2   3
ATOM      3  C   UNL     1      49.198  49.650  17.691  1.00  0.00    -0.025 A 
ATOM      4  C   UNL     1      49.392  50.202  16.410  1.00  0.00    +0.006 A 
ATOM      5  C   UNL     1      48.038  48.891  17.923  1.00  0.00    +0.027 A 
ATOM      6  C   UNL     1      48.474  49.977  15.380  1.00  0.00    +0.002 A 
ATOM      7  C   UNL     1      47.118  48.676  16.889  1.00  0.00    +0.082 A 
ATOM      8  C   UNL     1      47.341  49.199  15.612  1.00  0.00    +0.022 A 
BRANCH   7   9
ATOM      9  S   UNL     1      45.693  47.658  17.189  1.00  0.00    +0.240 S 
ATOM     10  O   UNL     1      44.515  48.336  16.698  1.00  0.00    -0.207 OA
ATOM     11  O   UNL     1      46.029  46.309  16.786  1.00  0.00    -0.207 OA
BRANCH   9  12
ATOM     12  N   UNL     1      45.635  47.630  18.873  1.00  0.00    -0.214 NA
ATOM     13  C   UNL     1      44.465  47.028  19.507  1.00  0.00    +0.120 C 
ATOM     14  H   UNL     1      46.549  47.417  19.272  1.00  0.00    +0.141 HD
ENDBRANCH   9  12
ENDBRANCH   7   9
ENDBRANCH   2   3
BRANCH   2  15
ATOM     15  N   UNL     1      50.086  51.283  19.248  1.00  0.00    -0.332 N 
ATOM     16  C   UNL     1      51.166  52.005  19.655  1.00  0.00    +0.315 C 
ATOM     17  O   UNL     1      52.325  51.614  19.645  1.00  0.00    -0.249 OA
ATOM     18  N   UNL     1      50.814  53.261  20.093  1.00  0.00    -0.330 N 
ATOM     19  H   UNL     1      49.185  51.533  19.631  1.00  0.00    +0.165 HD
ATOM     20  H   UNL     1      50.003  53.615  19.599  1.00  0.00    +0.165 HD
BRANCH  18  21
ATOM     21  C   UNL     1      51.875  54.209  20.379  1.00  0.00    +0.144 C 
ATOM     22  C   UNL     1      51.991  55.277  19.304  1.00  0.00    +0.092 C 
ATOM     23  C   UNL     1      51.671  55.047  21.656  1.00  0.00    +0.287 C 
ATOM     24  C   UNL     1      52.868  56.331  19.952  1.00  0.00    +0.264 C 
ATOM     25  N   UNL     1      52.482  56.321  21.417  1.00  0.00    -0.331 N 
ATOM     26  H   UNL     1      53.363  56.181  21.934  1.00  0.00    +0.348 HD
BRANCH  25  27
ATOM     27  C   UNL     1      51.908  57.617  21.956  1.00  0.00    +0.177 C 
ATOM     28  C   UNL     1      50.405  57.649  21.700  1.00  0.00    +0.075 C 
ATOM     29  C   UNL     1      52.609  58.847  21.389  1.00  0.00    +0.075 C 
ENDBRANCH  25  27
ENDBRANCH  18  21
ENDBRANCH   2  15
TORSDOF 6
ENDMDL
MODEL 5
REMARK VINA RESULT:    -7.586      3.762      9.135
REMARK INTER + INTRA:         -10.971
REMARK INTER:                 -10.310
REMARK INTRA:                  -0.660
REMARK UNBOUND:                -0.724
REMARK SMILES CNS(=O)(=O)c1cccc([C@H](C)NC(=O)N[C@H]2CC[NH+](C(C)C)C2)c1
REMARK SMILES IDX 12 1 11 2 10 3 9 4 25 5 8 6 6 7 7 8 3 9 4 10 5 11 2 12 1 13
REMARK SMILES IDX 13 15 14 16 15 17 16 18 17 21 18 22 24 23 19 24 20 25 21 27
REMARK SMILES IDX 22 28 23 29
REMARK H PARENT 2 14 13 19 16 20 20 26
ROOT
ATOM      1  C   UNL     1      48.700  54.659  17.661  1.00  0.00    +0.036 C 
ATOM      2  C   UNL     1      49.534  53.468  18.148  1.00  0.00    +0.111 C 
ENDROOT
BRANCH   2   3
ATOM      3  C   UNL     1      50.240  53.726  19.468  1.00  0.00    -0.025 A 
ATOM      4  C   UNL     1      50.480  52.650  20.345  1.00  0.00    +0.006 A 
ATOM      5  C   UNL     1      50.646  55.013  19.862  1.00  0.00    +0.027 A 
ATOM      6  C   UNL     1      51.136  52.845  21.564  1.00  0.00    +0.002 A 
ATOM      7  C   UNL     1      51.297  55.203  21.088  1.00  0.00    +0.082 A 
ATOM      8  C   UNL     1      51.562  54.120  21.932  1.00  0.00    +0.022 A 
BRANCH   7   9
ATOM      9  S   UNL     1      51.860  56.828  21.532  1.00  0.00    +0.240 S 
ATOM     10  O   UNL     1      53.040  56.709  22.358  1.00  0.00    -0.207 OA
ATOM     11  O   UNL     1      51.839  57.639  20.333  1.00  0.00    -0.207 OA
BRANCH   9  12
ATOM     12  N   UNL     1      50.590  57.387  22.486  1.00  0.00    -0.214 NA
ATOM     13  C   UNL     1      49.404  57.908  21.810  1.00  0.00    +0.120 C 
ATOM     14  H   UNL     1      50.443  56.787  23.297  1.00  0.00    +0.141 HD
ENDBRANCH   9  12
ENDBRANCH   7   9
ENDBRANCH   2   3
BRANCH   2  15
ATOM     15  N   UNL     1      48.724  52.262  18.269  1.00  0.00    -0.332 N 
ATOM     16  C   UNL     1      48.773  51.280  17.326  1.00  0.00    +0.315 C 
ATOM     17  O   UNL     1      49.489  51.284  16.334  1.00  0.00    -0.249 OA
ATOM     18  N   UNL     1      47.909  50.247  17.609  1.00  0.00    -0.330 N 
ATOM     19  H   UNL     1      47.877  52.346  18.813  1.00  0.00    +0.165 HD
ATOM     20  H   UNL     1      47.793  50.119  18.608  1.00  0.00    +0.165 HD
BRANCH  18  21
ATOM     21  C   UNL     1      47.987  49.047  16.797  1.00  0.00    +0.144 C 
ATOM     22  C   UNL     1      47.638  47.798  17.591  1.00  0.00    +0.092 C 
ATOM     23  C   UNL     1      46.986  48.986  15.628  1.00  0.00    +0.287 C 
ATOM     24  C   UNL     1      47.428  46.749  16.516  1.00  0.00    +0.264 C 
ATOM     25  N   UNL     1      46.800  47.493  15.355  1.00  0.00    -0.331 N 
ATOM     26  H   UNL     1      47.401  47.291  14.541  1.00  0.00    +0.348 HD
BRANCH  25  27
ATOM     27  C   UNL     1      45.414  47.032  14.949  1.00  0.00    +0.177 C 
ATOM     28  C   UNL     1      45.082  47.585  13.567  1.00  0.00    +0.075 C 
ATOM     29  C   UNL     1      44.351  47.398  15.980  1.00  0.00    +0.075 C 
ENDBRANCH  25  27
ENDBRANCH  18  21
ENDBRANCH   2  15
TORSDOF 6
ENDMDL
