MODEL 1
REMARK VINA RESULT:    -5.880      0.000      0.000
REMARK INTER + INTRA:         -10.449
REMARK INTER:                 -10.004
REMARK INTRA:                  -0.445
REMARK UNBOUND:                -0.445
REMARK SMILES CS(=O)(=O)N1CCC[C@H](NC(=O)NCCC[NH+]2CCCCCC2)C1
REMARK SMILES IDX 15 1 14 2 13 3 10 4 11 5 12 6 9 9 5 10 6 11 24 12 7 13 8 14
REMARK SMILES IDX 2 15 3 16 4 17 1 18 16 19 17 20 18 22 19 23 20 24 23 26
REMARK SMILES IDX 22 27 21 28
REMARK H PARENT 10 7 13 8 17 21
REMARK Flexibility Score:   88.900
ROOT
ATOM      1  C   UNL     1      50.638  50.229  20.477  1.00  0.00    +0.083 C 
ENDROOT
BRANCH   1   2
ATOM      2  C   UNL     1      51.406  51.502  20.854  1.00  0.00    +0.123 C 
BRANCH   2   3
ATOM      3  N   UNL     1      50.565  52.655  21.126  1.00  0.00    -0.338 N 
ATOM      4  N   UNL     1      49.810  54.723  20.616  1.00  0.00    -0.334 N 
ATOM      5  C   UNL     1      50.228  53.521  20.123  1.00  0.00    +0.315 C 
ATOM      6  O   UNL     1      50.328  53.246  18.934  1.00  0.00    -0.249 OA
ATOM      7  H   UNL     1      49.260  54.635  21.462  1.00  0.00    +0.165 HD
ATOM      8  H   UNL     1      50.838  53.169  21.952  1.00  0.00    +0.165 HD
BRANCH   4   9
ATOM      9  C   UNL     1      49.466  55.846  19.736  1.00  0.00    +0.099 C 
ATOM     10  N   UNL     1      51.073  57.471  20.827  1.00  0.00    -0.200 NA
ATOM     11  C   UNL     1      50.001  57.602  21.852  1.00  0.00    +0.102 C 
ATOM     12  C   UNL     1      50.621  56.850  19.538  1.00  0.00    +0.127 C 
ATOM     13  C   UNL     1      48.630  57.769  21.201  1.00  0.00    +0.019 C 
ATOM     14  C   UNL     1      48.247  56.591  20.300  1.00  0.00    +0.028 C 
BRANCH  10  15
ATOM     15  S   UNL     1      52.594  56.946  21.396  1.00  0.00    +0.211 S 
ATOM     16  O   UNL     1      52.379  56.008  22.480  1.00  0.00    -0.213 OA
ATOM     17  O   UNL     1      53.404  56.562  20.250  1.00  0.00    -0.213 OA
ATOM     18  C   UNL     1      53.284  58.445  22.067  1.00  0.00    +0.176 C 
ENDBRANCH  10  15
ENDBRANCH   4   9
ENDBRANCH   2   3
ENDBRANCH   1   2
BRANCH   1  19
ATOM     19  C   UNL     1      50.969  49.703  19.076  1.00  0.00    +0.264 C 
BRANCH  19  20
ATOM     20  N   UNL     1      49.803  49.794  18.125  1.00  0.00    -0.335 N 
ATOM     21  H   UNL     1      49.153  50.504  18.535  1.00  0.00    +0.348 HD
BRANCH  20  22
ATOM     22  C   UNL     1      50.164  50.425  16.808  1.00  0.00    +0.262 C 
BRANCH  22  23
ATOM     23  C   UNL     1      48.963  51.013  16.083  1.00  0.00    +0.061 C 
BRANCH  23  24
ATOM     24  C   UNL     1      47.727  51.297  16.935  1.00  0.00    +0.006 CG0
ATOM     25  G   UNL     1      46.959  50.061  17.391  1.00  0.00    +0.000 G0
ENDBRANCH  23  24
ENDBRANCH  22  23
ENDBRANCH  20  22
BRANCH  20  26
ATOM     26  C   UNL     1      48.956  48.543  18.089  1.00  0.00    +0.262 C 
BRANCH  26  27
ATOM     27  C   UNL     1      47.691  48.700  17.252  1.00  0.00    +0.061 C 
BRANCH  27  28
ATOM     28  C   UNL     1      46.953  50.042  17.391  1.00  0.00    +0.006 CG0
ATOM     29  G   UNL     1      47.719  51.284  16.943  1.00  0.00    +0.000 G0
ENDBRANCH  27  28
ENDBRANCH  26  27
ENDBRANCH  20  26
ENDBRANCH  19  20
ENDBRANCH   1  19
TORSDOF 6
ENDMDL
MODEL 2
REMARK VINA RESULT:    -5.655      4.034      7.968
REMARK INTER + INTRA:         -10.066
REMARK INTER:                  -9.767
REMARK INTRA:                  -0.299
REMARK UNBOUND:                -0.445
REMARK SMILES CS(=O)(=O)N1CCC[C@H](NC(=O)NCCC[NH+]2CCCCCC2)C1
REMARK SMILES IDX 15 1 14 2 13 3 10 4 11 5 12 6 9 9 5 10 6 11 24 12 7 13 8 14
REMARK SMILES IDX 2 15 3 16 4 17 1 18 16 19 17 20 18 22 19 23 20 24 23 26
REMARK SMILES IDX 22 27 21 28
REMARK H PARENT 10 7 13 8 17 21
REMARK Flexibility Score:   88.900
ROOT
ATOM      1  C   UNL     1      52.003  52.055  21.334  1.00  0.00    +0.083 C 
ENDROOT
BRANCH   1   2
ATOM      2  C   UNL     1      51.842  51.610  19.875  1.00  0.00    +0.123 C 
BRANCH   2   3
ATOM      3  N   UNL     1      50.497  51.193  19.516  1.00  0.00    -0.338 N 
ATOM      4  N   UNL     1      49.051  49.676  18.674  1.00  0.00    -0.334 N 
ATOM      5  C   UNL     1      50.189  49.866  19.402  1.00  0.00    +0.315 C 
ATOM      6  O   UNL     1      50.880  48.971  19.871  1.00  0.00    -0.249 OA
ATOM      7  H   UNL     1      48.345  50.381  18.849  1.00  0.00    +0.165 HD
ATOM      8  H   UNL     1      50.107  51.709  18.740  1.00  0.00    +0.165 HD
BRANCH   4   9
ATOM      9  C   UNL     1      48.554  48.334  18.347  1.00  0.00    +0.099 C 
ATOM     10  N   UNL     1      47.823  48.946  16.000  1.00  0.00    -0.200 NA
ATOM     11  C   UNL     1      46.627  49.508  16.687  1.00  0.00    +0.102 C 
ATOM     12  C   UNL     1      48.628  48.000  16.841  1.00  0.00    +0.127 C 
ATOM     13  C   UNL     1      46.080  48.537  17.730  1.00  0.00    +0.019 C 
ATOM     14  C   UNL     1      47.100  48.191  18.819  1.00  0.00    +0.028 C 
BRANCH  10  15
ATOM     15  S   UNL     1      48.732  50.042  15.059  1.00  0.00    +0.211 S 
ATOM     16  O   UNL     1      50.140  49.783  15.289  1.00  0.00    -0.213 OA
ATOM     17  O   UNL     1      48.201  50.034  13.706  1.00  0.00    -0.213 OA
ATOM     18  C   UNL     1      48.314  51.609  15.796  1.00  0.00    +0.176 C 
ENDBRANCH  10  15
ENDBRANCH   4   9
ENDBRANCH   2   3
ENDBRANCH   1   2
BRANCH   1  19
ATOM     19  C   UNL     1      50.875  52.969  21.826  1.00  0.00    +0.264 C 
BRANCH  19  20
ATOM     20  N   UNL     1      51.032  54.396  21.361  1.00  0.00    -0.335 N 
ATOM     21  H   UNL     1      51.787  54.380  20.638  1.00  0.00    +0.348 HD
BRANCH  20  22
ATOM     22  C   UNL     1      49.851  54.892  20.572  1.00  0.00    +0.262 C 
BRANCH  22  23
ATOM     23  C   UNL     1      49.500  56.340  20.878  1.00  0.00    +0.061 C 
BRANCH  23  24
ATOM     24  C   UNL     1      50.483  57.398  20.382  1.00  0.00    +0.006 CG0
ATOM     25  G   UNL     1      51.645  57.693  21.326  1.00  0.00    +0.000 G0
ENDBRANCH  23  24
ENDBRANCH  22  23
ENDBRANCH  20  22
BRANCH  20  26
ATOM     26  C   UNL     1      51.597  55.315  22.420  1.00  0.00    +0.262 C 
BRANCH  26  27
ATOM     27  C   UNL     1      52.429  56.453  21.841  1.00  0.00    +0.061 C 
BRANCH  27  28
ATOM     28  C   UNL     1      51.643  57.676  21.339  1.00  0.00    +0.006 CG0
ATOM     29  G   UNL     1      50.481  57.392  20.393  1.00  0.00    +0.000 G0
ENDBRANCH  27  28
ENDBRANCH  26  27
ENDBRANCH  20  26
ENDBRANCH  19  20
ENDBRANCH   1  19
TORSDOF 6
ENDMDL
MODEL 3
REMARK VINA RESULT:    -4.890      5.270      8.940
REMARK INTER + INTRA:          -8.766
REMARK INTER:                  -8.512
REMARK INTRA:                  -0.254
REMARK UNBOUND:                -0.445
REMARK SMILES CS(=O)(=O)N1CCC[C@H](NC(=O)NCCC[NH+]2CCCCCC2)C1
REMARK SMILES IDX 15 1 14 2 13 3 10 4 11 5 12 6 9 9 5 10 6 11 24 12 7 13 8 14
REMARK SMILES IDX 2 15 3 16 4 17 1 18 16 19 17 20 18 22 19 23 20 24 23 26
REMARK SMILES IDX 22 27 21 28
REMARK H PARENT 10 7 13 8 17 21
REMARK Flexibility Score:   88.900
ROOT
ATOM      1  C   UNL     1      47.087  58.530  19.584  1.00  0.00    +0.083 C 
ENDROOT
BRANCH   1   2
ATOM      2  C   UNL     1      47.895  57.611  18.660  1.00  0.00    +0.123 C 
BRANCH   2   3
ATOM      3  N   UNL     1      48.479  56.455  19.318  1.00  0.00    -0.338 N 
ATOM      4  N   UNL     1      50.266  55.285  20.055  1.00  0.00    -0.334 N 
ATOM      5  C   UNL     1      49.730  56.525  19.866  1.00  0.00    +0.315 C 
ATOM      6  O   UNL     1      50.296  57.581  20.118  1.00  0.00    -0.249 OA
ATOM      7  H   UNL     1      49.583  54.598  20.352  1.00  0.00    +0.165 HD
ATOM      8  H   UNL     1      48.376  55.597  18.794  1.00  0.00    +0.165 HD
BRANCH   4   9
ATOM      9  C   UNL     1      51.631  55.098  20.560  1.00  0.00    +0.099 C 
ATOM     10  N   UNL     1      51.648  52.591  20.201  1.00  0.00    -0.200 NA
ATOM     11  C   UNL     1      50.888  52.559  21.481  1.00  0.00    +0.102 C 
ATOM     12  C   UNL     1      52.358  53.887  19.938  1.00  0.00    +0.127 C 
ATOM     13  C   UNL     1      51.528  53.468  22.528  1.00  0.00    +0.019 C 
ATOM     14  C   UNL     1      51.600  54.933  22.086  1.00  0.00    +0.028 C 
BRANCH  10  15
ATOM     15  S   UNL     1      50.872  51.896  18.850  1.00  0.00    +0.211 S 
ATOM     16  O   UNL     1      50.123  50.738  19.297  1.00  0.00    -0.213 OA
ATOM     17  O   UNL     1      50.203  52.956  18.111  1.00  0.00    -0.213 OA
ATOM     18  C   UNL     1      52.250  51.339  17.868  1.00  0.00    +0.176 C 
ENDBRANCH  10  15
ENDBRANCH   4   9
ENDBRANCH   2   3
ENDBRANCH   1   2
BRANCH   1  19
ATOM     19  C   UNL     1      47.486  60.006  19.487  1.00  0.00    +0.264 C 
BRANCH  19  20
ATOM     20  N   UNL     1      46.328  60.905  19.133  1.00  0.00    -0.335 N 
ATOM     21  H   UNL     1      45.547  60.632  19.772  1.00  0.00    +0.348 HD
BRANCH  20  22
ATOM     22  C   UNL     1      46.558  62.342  19.515  1.00  0.00    +0.262 C 
BRANCH  22  23
ATOM     23  C   UNL     1      45.263  63.118  19.706  1.00  0.00    +0.061 C 
BRANCH  23  24
ATOM     24  C   UNL     1      44.668  63.765  18.457  1.00  0.00    +0.006 CG0
ATOM     25  G   UNL     1      44.429  62.814  17.289  1.00  0.00    +0.000 G0
ENDBRANCH  23  24
ENDBRANCH  22  23
ENDBRANCH  20  22
BRANCH  20  26
ATOM     26  C   UNL     1      45.753  60.633  17.761  1.00  0.00    +0.262 C 
BRANCH  26  27
ATOM     27  C   UNL     1      45.602  61.893  16.916  1.00  0.00    +0.061 C 
BRANCH  27  28
ATOM     28  C   UNL     1      44.428  62.816  17.284  1.00  0.00    +0.006 CG0
ATOM     29  G   UNL     1      44.657  63.769  18.453  1.00  0.00    +0.000 G0
ENDBRANCH  27  28
ENDBRANCH  26  27
ENDBRANCH  20  26
ENDBRANCH  19  20
ENDBRANCH   1  19
TORSDOF 6
ENDMDL
MODEL 4
REMARK VINA RESULT:    -4.850      3.896      7.726
REMARK INTER + INTRA:          -8.698
REMARK INTER:                  -8.401
REMARK INTRA:                  -0.297
REMARK UNBOUND:                -0.445
REMARK SMILES CS(=O)(=O)N1CCC[C@H](NC(=O)NCCC[NH+]2CCCCCC2)C1
REMARK SMILES IDX 15 1 14 2 13 3 10 4 11 5 12 6 9 9 5 10 6 11 24 12 7 13 8 14
REMARK SMILES IDX 2 15 3 16 4 17 1 18 16 19 17 20 18 22 19 23 20 24 23 26
REMARK SMILES IDX 22 27 21 28
REMARK H PARENT 10 7 13 8 17 21
REMARK Flexibility Score:   88.900
ROOT
ATOM      1  C   UNL     1      48.271  56.518  20.222  1.00  0.00    +0.083 C 
ENDROOT
BRANCH   1   2
ATOM      2  C   UNL     1      49.659  55.888  20.396  1.00  0.00    +0.123 C 
BRANCH   2   3
ATOM      3  N   UNL     1      49.665  54.436  20.402  1.00  0.00    -0.338 N 
ATOM      4  N   UNL     1      50.543  52.454  19.764  1.00  0.00    -0.334 N 
ATOM      5  C   UNL     1      50.810  53.745  20.118  1.00  0.00    +0.315 C 
ATOM      6  O   UNL     1      51.926  54.248  20.149  1.00  0.00    -0.249 OA
ATOM      7  H   UNL     1      49.784  52.045  20.295  1.00  0.00    +0.165 HD
ATOM      8  H   UNL     1      48.881  54.026  19.914  1.00  0.00    +0.165 HD
BRANCH   4   9
ATOM      9  C   UNL     1      51.602  51.531  19.340  1.00  0.00    +0.099 C 
ATOM     10  N   UNL     1      50.037  49.963  18.112  1.00  0.00    -0.200 NA
ATOM     11  C   UNL     1      49.755  49.430  19.473  1.00  0.00    +0.102 C 
ATOM     12  C   UNL     1      51.285  50.793  18.022  1.00  0.00    +0.127 C 
ATOM     13  C   UNL     1      51.044  49.211  20.262  1.00  0.00    +0.019 C 
ATOM     14  C   UNL     1      51.859  50.495  20.444  1.00  0.00    +0.028 C 
BRANCH  10  15
ATOM     15  S   UNL     1      48.694  50.568  17.249  1.00  0.00    +0.211 S 
ATOM     16  O   UNL     1      47.574  49.671  17.459  1.00  0.00    -0.213 OA
ATOM     17  O   UNL     1      48.559  51.985  17.547  1.00  0.00    -0.213 OA
ATOM     18  C   UNL     1      49.235  50.419  15.558  1.00  0.00    +0.176 C 
ENDBRANCH  10  15
ENDBRANCH   4   9
ENDBRANCH   2   3
ENDBRANCH   1   2
BRANCH   1  19
ATOM     19  C   UNL     1      48.313  58.002  19.839  1.00  0.00    +0.264 C 
BRANCH  19  20
ATOM     20  N   UNL     1      47.587  58.295  18.550  1.00  0.00    -0.335 N 
ATOM     21  H   UNL     1      46.572  58.142  18.752  1.00  0.00    +0.348 HD
BRANCH  20  22
ATOM     22  C   UNL     1      47.615  59.752  18.176  1.00  0.00    +0.262 C 
BRANCH  22  23
ATOM     23  C   UNL     1      46.256  60.276  17.734  1.00  0.00    +0.061 C 
BRANCH  23  24
ATOM     24  C   UNL     1      45.760  59.809  16.367  1.00  0.00    +0.006 CG0
ATOM     25  G   UNL     1      45.946  58.321  16.087  1.00  0.00    +0.000 G0
ENDBRANCH  23  24
ENDBRANCH  22  23
ENDBRANCH  20  22
BRANCH  20  26
ATOM     26  C   UNL     1      47.871  57.291  17.458  1.00  0.00    +0.262 C 
BRANCH  26  27
ATOM     27  C   UNL     1      47.351  57.728  16.093  1.00  0.00    +0.061 C 
BRANCH  27  28
ATOM     28  C   UNL     1      45.925  58.303  16.067  1.00  0.00    +0.006 CG0
ATOM     29  G   UNL     1      45.790  59.791  16.375  1.00  0.00    +0.000 G0
ENDBRANCH  27  28
ENDBRANCH  26  27
ENDBRANCH  20  26
ENDBRANCH  19  20
ENDBRANCH   1  19
TORSDOF 6
ENDMDL
MODEL 5
REMARK VINA RESULT:    -4.824      5.922      9.446
REMARK INTER + INTRA:          -8.652
REMARK INTER:                  -8.311
REMARK INTRA:                  -0.341
REMARK UNBOUND:                -0.445
REMARK SMILES CS(=O)(=O)N1CCC[C@H](NC(=O)NCCC[NH+]2CCCCCC2)C1
REMARK SMILES IDX 15 1 14 2 13 3 10 4 11 5 12 6 9 9 5 10 6 11 24 12 7 13 8 14
REMARK SMILES IDX 2 15 3 16 4 17 1 18 16 19 17 20 18 22 19 23 20 24 23 26
REMARK SMILES IDX 22 27 21 28
REMARK H PARENT 10 7 13 8 17 21
REMARK Flexibility Score:   88.900
ROOT
ATOM      1  C   UNL     1      46.770  60.089  18.396  1.00  0.00    +0.083 C 
ENDROOT
BRANCH   1   2
ATOM      2  C   UNL     1      47.490  59.299  19.497  1.00  0.00    +0.123 C 
BRANCH   2   3
ATOM      3  N   UNL     1      48.284  58.181  19.016  1.00  0.00    -0.338 N 
ATOM      4  N   UNL     1      49.301  56.189  19.334  1.00  0.00    -0.334 N 
ATOM      5  C   UNL     1      48.220  56.965  19.637  1.00  0.00    +0.315 C 
ATOM      6  O   UNL     1      47.315  56.643  20.396  1.00  0.00    -0.249 OA
ATOM      7  H   UNL     1      49.605  56.289  18.373  1.00  0.00    +0.165 HD
ATOM      8  H   UNL     1      49.246  58.423  18.821  1.00  0.00    +0.165 HD
BRANCH   4   9
ATOM      9  C   UNL     1      49.501  54.867  19.939  1.00  0.00    +0.099 C 
ATOM     10  N   UNL     1      51.890  55.319  20.650  1.00  0.00    -0.200 NA
ATOM     11  C   UNL     1      52.207  55.008  19.229  1.00  0.00    +0.102 C 
ATOM     12  C   UNL     1      50.529  54.865  21.091  1.00  0.00    +0.127 C 
ATOM     13  C   UNL     1      51.478  53.751  18.761  1.00  0.00    +0.019 C 
ATOM     14  C   UNL     1      49.954  53.869  18.864  1.00  0.00    +0.028 C 
BRANCH  10  15
ATOM     15  S   UNL     1      52.359  56.864  21.204  1.00  0.00    +0.211 S 
ATOM     16  O   UNL     1      51.346  57.821  20.802  1.00  0.00    -0.213 OA
ATOM     17  O   UNL     1      52.742  56.752  22.602  1.00  0.00    -0.213 OA
ATOM     18  C   UNL     1      53.838  57.169  20.260  1.00  0.00    +0.176 C 
ENDBRANCH  10  15
ENDBRANCH   4   9
ENDBRANCH   2   3
ENDBRANCH   1   2
BRANCH   1  19
ATOM     19  C   UNL     1      45.614  60.951  18.915  1.00  0.00    +0.264 C 
BRANCH  19  20
ATOM     20  N   UNL     1      45.575  62.320  18.283  1.00  0.00    -0.335 N 
ATOM     21  H   UNL     1      45.150  62.187  17.336  1.00  0.00    +0.348 HD
BRANCH  20  22
ATOM     22  C   UNL     1      44.589  63.246  18.942  1.00  0.00    +0.262 C 
BRANCH  22  23
ATOM     23  C   UNL     1      44.241  64.451  18.081  1.00  0.00    +0.061 C 
BRANCH  23  24
ATOM     24  C   UNL     1      44.350  64.260  16.569  1.00  0.00    +0.006 CG0
ATOM     25  G   UNL     1      45.775  64.184  16.029  1.00  0.00    +0.000 G0
ENDBRANCH  23  24
ENDBRANCH  22  23
ENDBRANCH  20  22
BRANCH  20  26
ATOM     26  C   UNL     1      46.944  62.875  17.964  1.00  0.00    +0.262 C 
BRANCH  26  27
ATOM     27  C   UNL     1      46.894  64.133  17.105  1.00  0.00    +0.061 C 
BRANCH  27  28
ATOM     28  C   UNL     1      45.784  64.181  16.041  1.00  0.00    +0.006 CG0
ATOM     29  G   UNL     1      44.351  64.248  16.562  1.00  0.00    +0.000 G0
ENDBRANCH  27  28
ENDBRANCH  26  27
ENDBRANCH  20  26
ENDBRANCH  19  20
ENDBRANCH   1  19
TORSDOF 6
ENDMDL
