MODEL 1
REMARK VINA RESULT:    -7.898      0.000      0.000
REMARK INTER + INTRA:         -11.912
REMARK INTER:                 -10.668
REMARK INTRA:                  -1.244
REMARK UNBOUND:                -1.244
REMARK SMILES CCc1c(C)nn(CCNc2nc(N(C)C)nc3c2CC[NH2+]C3)c1C
REMARK SMILES IDX 9 1 8 2 7 3 3 4 4 5 24 6 6 7 5 8 25 9 2 10 1 11 10 12 11 14
REMARK SMILES IDX 19 15 12 16 18 17 20 18 13 19 17 20 23 21 21 22 22 23 14 26
REMARK SMILES IDX 15 27 16 28
REMARK H PARENT 10 13 22 24 22 25
ROOT
ATOM      1  C   UNL     1      48.240  53.175  17.887  1.00  0.00    +0.138 C 
ENDROOT
BRANCH   1   2
ATOM      2  C   UNL     1      47.538  52.692  16.621  1.00  0.00    +0.165 C 
BRANCH   2   3
ATOM      3  N   UNL     1      48.019  51.386  16.217  1.00  0.00    -0.268 N 
ATOM      4  C   UNL     1      48.305  49.236  15.868  1.00  0.00    -0.004 A 
ATOM      5  C   UNL     1      49.333  50.020  15.274  1.00  0.00    +0.063 A 
ATOM      6  C   UNL     1      47.471  50.158  16.480  1.00  0.00    +0.039 A 
ATOM      7  N   UNL     1      49.149  51.326  15.494  1.00  0.00    -0.178 NA
ATOM      8  C   UNL     1      50.502  49.553  14.488  1.00  0.00    +0.069 C 
ATOM      9  C   UNL     1      46.228  49.969  17.271  1.00  0.00    +0.066 C 
BRANCH   4  10
ATOM     10  C   UNL     1      48.167  47.750  15.831  1.00  0.00    +0.036 C 
ATOM     11  C   UNL     1      48.678  47.088  17.102  1.00  0.00    +0.009 C 
ENDBRANCH   4  10
ENDBRANCH   2   3
ENDBRANCH   1   2
BRANCH   1  12
ATOM     12  N   UNL     1      49.707  53.135  17.703  1.00  0.00    -0.368 N 
ATOM     13  H   UNL     1      49.973  52.246  17.283  1.00  0.00    +0.162 HD
BRANCH  12  14
ATOM     14  C   UNL     1      50.436  53.303  18.899  1.00  0.00    +0.135 A 
ATOM     15  C   UNL     1      50.819  52.184  19.616  1.00  0.00    +0.028 A 
ATOM     16  N   UNL     1      50.761  54.536  19.310  1.00  0.00    -0.196 NA
ATOM     17  C   UNL     1      51.523  52.434  20.784  1.00  0.00    +0.106 A 
ATOM     18  C   UNL     1      50.462  50.784  19.193  1.00  0.00    +0.103 C 
ATOM     19  C   UNL     1      51.445  54.710  20.447  1.00  0.00    +0.227 A 
ATOM     20  N   UNL     1      51.841  53.671  21.197  1.00  0.00    -0.212 NA
ATOM     21  C   UNL     1      52.017  51.302  21.644  1.00  0.00    +0.318 C 
ATOM     22  C   UNL     1      51.296  49.710  19.891  1.00  0.00    +0.265 C 
ATOM     23  N   UNL     1      51.350  49.989  21.357  1.00  0.00    -0.341 N 
ATOM     24  H   UNL     1      51.853  49.242  21.852  1.00  0.00    +0.346 HD
ATOM     25  H   UNL     1      50.400  50.012  21.752  1.00  0.00    +0.346 HD
BRANCH  19  26
ATOM     26  N   UNL     1      51.717  56.001  20.888  1.00  0.00    -0.347 N 
ATOM     27  C   UNL     1      52.866  56.639  20.262  1.00  0.00    +0.146 C 
ATOM     28  C   UNL     1      51.538  56.230  22.312  1.00  0.00    +0.146 C 
ENDBRANCH  19  26
ENDBRANCH  12  14
ENDBRANCH   1  12
TORSDOF 6
ENDMDL
MODEL 2
REMARK VINA RESULT:    -7.887      1.649      2.067
REMARK INTER + INTRA:         -11.898
REMARK INTER:                 -10.876
REMARK INTRA:                  -1.022
REMARK UNBOUND:                -1.244
REMARK SMILES CCc1c(C)nn(CCNc2nc(N(C)C)nc3c2CC[NH2+]C3)c1C
REMARK SMILES IDX 9 1 8 2 7 3 3 4 4 5 24 6 6 7 5 8 25 9 2 10 1 11 10 12 11 14
REMARK SMILES IDX 19 15 12 16 18 17 20 18 13 19 17 20 23 21 21 22 22 23 14 26
REMARK SMILES IDX 15 27 16 28
REMARK H PARENT 10 13 22 24 22 25
ROOT
ATOM      1  C   UNL     1      48.255  53.497  17.111  1.00  0.00    +0.138 C 
ENDROOT
BRANCH   1   2
ATOM      2  C   UNL     1      47.154  52.440  17.064  1.00  0.00    +0.165 C 
BRANCH   2   3
ATOM      3  N   UNL     1      47.641  51.197  16.500  1.00  0.00    -0.268 N 
ATOM      4  C   UNL     1      47.946  49.106  15.899  1.00  0.00    -0.004 A 
ATOM      5  C   UNL     1      48.945  49.969  15.371  1.00  0.00    +0.063 A 
ATOM      6  C   UNL     1      47.118  49.938  16.636  1.00  0.00    +0.039 A 
ATOM      7  N   UNL     1      48.751  51.238  15.743  1.00  0.00    -0.178 NA
ATOM      8  C   UNL     1      50.097  49.615  14.504  1.00  0.00    +0.069 C 
ATOM      9  C   UNL     1      45.901  49.639  17.434  1.00  0.00    +0.066 C 
BRANCH   4  10
ATOM     10  C   UNL     1      47.828  47.631  15.696  1.00  0.00    +0.036 C 
ATOM     11  C   UNL     1      48.605  46.839  16.737  1.00  0.00    +0.009 C 
ENDBRANCH   4  10
ENDBRANCH   2   3
ENDBRANCH   1   2
BRANCH   1  12
ATOM     12  N   UNL     1      49.369  53.034  17.965  1.00  0.00    -0.368 N 
ATOM     13  H   UNL     1      49.147  52.117  18.348  1.00  0.00    +0.162 HD
BRANCH  12  14
ATOM     14  C   UNL     1      49.668  53.905  19.034  1.00  0.00    +0.135 A 
ATOM     15  C   UNL     1      50.441  53.441  20.083  1.00  0.00    +0.028 A 
ATOM     16  N   UNL     1      49.217  55.166  19.008  1.00  0.00    -0.196 NA
ATOM     17  C   UNL     1      50.681  54.354  21.098  1.00  0.00    +0.106 A 
ATOM     18  C   UNL     1      50.956  52.029  20.155  1.00  0.00    +0.103 C 
ATOM     19  C   UNL     1      49.486  56.001  20.020  1.00  0.00    +0.227 A 
ATOM     20  N   UNL     1      50.222  55.616  21.073  1.00  0.00    -0.212 NA
ATOM     21  C   UNL     1      51.527  53.983  22.287  1.00  0.00    +0.318 C 
ATOM     22  C   UNL     1      52.083  51.845  21.169  1.00  0.00    +0.265 C 
ATOM     23  N   UNL     1      51.713  52.504  22.458  1.00  0.00    -0.341 N 
ATOM     24  H   UNL     1      52.431  52.336  23.173  1.00  0.00    +0.346 HD
ATOM     25  H   UNL     1      50.838  52.106  22.825  1.00  0.00    +0.346 HD
BRANCH  19  26
ATOM     26  N   UNL     1      48.955  57.286  20.002  1.00  0.00    -0.347 N 
ATOM     27  C   UNL     1      48.606  57.827  21.308  1.00  0.00    +0.146 C 
ATOM     28  C   UNL     1      48.041  57.574  18.910  1.00  0.00    +0.146 C 
ENDBRANCH  19  26
ENDBRANCH  12  14
ENDBRANCH   1  12
TORSDOF 6
ENDMDL
MODEL 3
REMARK VINA RESULT:    -7.818      2.393      6.689
REMARK INTER + INTRA:         -11.805
REMARK INTER:                 -10.826
REMARK INTRA:                  -0.978
REMARK UNBOUND:                -1.244
REMARK SMILES CCc1c(C)nn(CCNc2nc(N(C)C)nc3c2CC[NH2+]C3)c1C
REMARK SMILES IDX 9 1 8 2 7 3 3 4 4 5 24 6 6 7 5 8 25 9 2 10 1 11 10 12 11 14
REMARK SMILES IDX 19 15 12 16 18 17 20 18 13 19 17 20 23 21 21 22 22 23 14 26
REMARK SMILES IDX 15 27 16 28
REMARK H PARENT 10 13 22 24 22 25
ROOT
ATOM      1  C   UNL     1      47.579  53.158  16.630  1.00  0.00    +0.138 C 
ENDROOT
BRANCH   1   2
ATOM      2  C   UNL     1      48.188  54.555  16.536  1.00  0.00    +0.165 C 
BRANCH   2   3
ATOM      3  N   UNL     1      48.650  55.017  17.829  1.00  0.00    -0.268 N 
ATOM      4  C   UNL     1      49.138  56.188  19.623  1.00  0.00    -0.004 A 
ATOM      5  C   UNL     1      49.561  54.835  19.731  1.00  0.00    +0.063 A 
ATOM      6  C   UNL     1      48.555  56.273  18.368  1.00  0.00    +0.039 A 
ATOM      7  N   UNL     1      49.260  54.132  18.635  1.00  0.00    -0.178 NA
ATOM      8  C   UNL     1      50.253  54.181  20.870  1.00  0.00    +0.069 C 
ATOM      9  C   UNL     1      47.931  57.421  17.663  1.00  0.00    +0.066 C 
BRANCH   4  10
ATOM     10  C   UNL     1      49.292  57.268  20.643  1.00  0.00    +0.036 C 
ATOM     11  C   UNL     1      47.961  57.894  21.031  1.00  0.00    +0.009 C 
ENDBRANCH   4  10
ENDBRANCH   2   3
ENDBRANCH   1   2
BRANCH   1  12
ATOM     12  N   UNL     1      48.638  52.132  16.513  1.00  0.00    -0.368 N 
ATOM     13  H   UNL     1      48.721  51.838  15.542  1.00  0.00    +0.162 HD
BRANCH  12  14
ATOM     14  C   UNL     1      48.415  50.990  17.310  1.00  0.00    +0.135 A 
ATOM     15  C   UNL     1      49.442  50.513  18.104  1.00  0.00    +0.028 A 
ATOM     16  N   UNL     1      47.213  50.399  17.300  1.00  0.00    -0.196 NA
ATOM     17  C   UNL     1      49.146  49.381  18.848  1.00  0.00    +0.106 A 
ATOM     18  C   UNL     1      50.809  51.141  18.134  1.00  0.00    +0.103 C 
ATOM     19  C   UNL     1      46.990  49.308  18.044  1.00  0.00    +0.227 A 
ATOM     20  N   UNL     1      47.942  48.786  18.831  1.00  0.00    -0.212 NA
ATOM     21  C   UNL     1      50.169  48.774  19.770  1.00  0.00    +0.318 C 
ATOM     22  C   UNL     1      51.647  50.713  19.337  1.00  0.00    +0.265 C 
ATOM     23  N   UNL     1      51.573  49.229  19.498  1.00  0.00    -0.341 N 
ATOM     24  H   UNL     1      52.182  48.916  20.264  1.00  0.00    +0.346 HD
ATOM     25  H   UNL     1      51.909  48.759  18.647  1.00  0.00    +0.346 HD
BRANCH  19  26
ATOM     26  N   UNL     1      45.755  48.673  17.970  1.00  0.00    -0.347 N 
ATOM     27  C   UNL     1      45.593  47.531  18.858  1.00  0.00    +0.146 C 
ATOM     28  C   UNL     1      45.191  48.549  16.637  1.00  0.00    +0.146 C 
ENDBRANCH  19  26
ENDBRANCH  12  14
ENDBRANCH   1  12
TORSDOF 6
ENDMDL
MODEL 4
REMARK VINA RESULT:    -7.818      1.367      3.440
REMARK INTER + INTRA:         -11.804
REMARK INTER:                 -10.964
REMARK INTRA:                  -0.839
REMARK UNBOUND:                -1.244
REMARK SMILES CCc1c(C)nn(CCNc2nc(N(C)C)nc3c2CC[NH2+]C3)c1C
REMARK SMILES IDX 9 1 8 2 7 3 3 4 4 5 24 6 6 7 5 8 25 9 2 10 1 11 10 12 11 14
REMARK SMILES IDX 19 15 12 16 18 17 20 18 13 19 17 20 23 21 21 22 22 23 14 26
REMARK SMILES IDX 15 27 16 28
REMARK H PARENT 10 13 22 24 22 25
ROOT
ATOM      1  C   UNL     1      48.572  53.564  17.374  1.00  0.00    +0.138 C 
ENDROOT
BRANCH   1   2
ATOM      2  C   UNL     1      47.450  52.537  17.239  1.00  0.00    +0.165 C 
BRANCH   2   3
ATOM      3  N   UNL     1      47.928  51.311  16.632  1.00  0.00    -0.268 N 
ATOM      4  C   UNL     1      48.203  49.245  15.938  1.00  0.00    -0.004 A 
ATOM      5  C   UNL     1      49.245  50.106  15.495  1.00  0.00    +0.063 A 
ATOM      6  C   UNL     1      47.367  50.062  16.682  1.00  0.00    +0.039 A 
ATOM      7  N   UNL     1      49.068  51.359  15.924  1.00  0.00    -0.178 NA
ATOM      8  C   UNL     1      50.423  49.763  14.658  1.00  0.00    +0.069 C 
ATOM      9  C   UNL     1      46.111  49.757  17.414  1.00  0.00    +0.066 C 
BRANCH   4  10
ATOM     10  C   UNL     1      48.055  47.786  15.655  1.00  0.00    +0.036 C 
ATOM     11  C   UNL     1      48.601  46.919  16.779  1.00  0.00    +0.009 C 
ENDBRANCH   4  10
ENDBRANCH   2   3
ENDBRANCH   1   2
BRANCH   1  12
ATOM     12  N   UNL     1      48.395  54.351  18.613  1.00  0.00    -0.368 N 
ATOM     13  H   UNL     1      48.202  55.322  18.374  1.00  0.00    +0.162 HD
BRANCH  12  14
ATOM     14  C   UNL     1      49.509  54.314  19.477  1.00  0.00    +0.135 A 
ATOM     15  C   UNL     1      49.735  55.379  20.330  1.00  0.00    +0.028 A 
ATOM     16  N   UNL     1      50.317  53.245  19.471  1.00  0.00    -0.196 NA
ATOM     17  C   UNL     1      50.856  55.271  21.139  1.00  0.00    +0.106 A 
ATOM     18  C   UNL     1      48.858  56.602  20.357  1.00  0.00    +0.103 C 
ATOM     19  C   UNL     1      51.384  53.200  20.280  1.00  0.00    +0.227 A 
ATOM     20  N   UNL     1      51.668  54.201  21.126  1.00  0.00    -0.212 NA
ATOM     21  C   UNL     1      51.202  56.351  22.128  1.00  0.00    +0.318 C 
ATOM     22  C   UNL     1      49.048  57.456  21.610  1.00  0.00    +0.265 C 
ATOM     23  N   UNL     1      50.506  57.654  21.867  1.00  0.00    -0.341 N 
ATOM     24  H   UNL     1      50.653  58.280  22.668  1.00  0.00    +0.346 HD
ATOM     25  H   UNL     1      50.954  58.107  21.058  1.00  0.00    +0.346 HD
BRANCH  19  26
ATOM     26  N   UNL     1      52.244  52.110  20.212  1.00  0.00    -0.347 N 
ATOM     27  C   UNL     1      52.435  51.555  18.880  1.00  0.00    +0.146 C 
ATOM     28  C   UNL     1      52.143  51.160  21.307  1.00  0.00    +0.146 C 
ENDBRANCH  19  26
ENDBRANCH  12  14
ENDBRANCH   1  12
TORSDOF 6
ENDMDL
MODEL 5
REMARK VINA RESULT:    -7.606      2.217      3.125
REMARK INTER + INTRA:         -11.517
REMARK INTER:                 -10.787
REMARK INTRA:                  -0.730
REMARK UNBOUND:                -1.244
REMARK SMILES CCc1c(C)nn(CCNc2nc(N(C)C)nc3c2CC[NH2+]C3)c1C
REMARK SMILES IDX 9 1 8 2 7 3 3 4 4 5 24 6 6 7 5 8 25 9 2 10 1 11 10 12 11 14
REMARK SMILES IDX 19 15 12 16 18 17 20 18 13 19 17 20 23 21 21 22 22 23 14 26
REMARK SMILES IDX 15 27 16 28
REMARK H PARENT 10 13 22 24 22 25
ROOT
ATOM      1  C   UNL     1      48.484  51.136  17.173  1.00  0.00    +0.138 C 
ENDROOT
BRANCH   1   2
ATOM      2  C   UNL     1      48.706  49.627  17.228  1.00  0.00    +0.165 C 
BRANCH   2   3
ATOM      3  N   UNL     1      47.448  48.908  17.216  1.00  0.00    -0.268 N 
ATOM      4  C   UNL     1      45.600  47.859  16.659  1.00  0.00    -0.004 A 
ATOM      5  C   UNL     1      45.776  47.928  18.068  1.00  0.00    +0.063 A 
ATOM      6  C   UNL     1      46.703  48.515  16.135  1.00  0.00    +0.039 A 
ATOM      7  N   UNL     1      46.903  48.569  18.396  1.00  0.00    -0.178 NA
ATOM      8  C   UNL     1      44.890  47.388  19.130  1.00  0.00    +0.069 C 
ATOM      9  C   UNL     1      47.095  48.786  14.729  1.00  0.00    +0.066 C 
BRANCH   4  10
ATOM     10  C   UNL     1      44.471  47.219  15.920  1.00  0.00    +0.036 C 
ATOM     11  C   UNL     1      44.824  45.830  15.412  1.00  0.00    +0.009 C 
ENDBRANCH   4  10
ENDBRANCH   2   3
ENDBRANCH   1   2
BRANCH   1  12
ATOM     12  N   UNL     1      49.779  51.845  17.257  1.00  0.00    -0.368 N 
ATOM     13  H   UNL     1      50.540  51.169  17.218  1.00  0.00    +0.162 HD
BRANCH  12  14
ATOM     14  C   UNL     1      49.929  52.622  18.425  1.00  0.00    +0.135 A 
ATOM     15  C   UNL     1      50.716  52.142  19.456  1.00  0.00    +0.028 A 
ATOM     16  N   UNL     1      49.325  53.814  18.509  1.00  0.00    -0.196 NA
ATOM     17  C   UNL     1      50.804  52.960  20.572  1.00  0.00    +0.106 A 
ATOM     18  C   UNL     1      51.401  50.803  19.403  1.00  0.00    +0.103 C 
ATOM     19  C   UNL     1      49.451  54.559  19.616  1.00  0.00    +0.227 A 
ATOM     20  N   UNL     1      50.191  54.152  20.657  1.00  0.00    -0.212 NA
ATOM     21  C   UNL     1      51.647  52.564  21.754  1.00  0.00    +0.318 C 
ATOM     22  C   UNL     1      52.507  50.646  20.446  1.00  0.00    +0.265 C 
ATOM     23  N   UNL     1      52.011  51.109  21.777  1.00  0.00    -0.341 N 
ATOM     24  H   UNL     1      52.719  50.951  22.504  1.00  0.00    +0.346 HD
ATOM     25  H   UNL     1      51.181  50.570  22.057  1.00  0.00    +0.346 HD
BRANCH  19  26
ATOM     26  N   UNL     1      48.764  55.764  19.708  1.00  0.00    -0.347 N 
ATOM     27  C   UNL     1      48.589  56.474  18.449  1.00  0.00    +0.146 C 
ATOM     28  C   UNL     1      49.066  56.573  20.877  1.00  0.00    +0.146 C 
ENDBRANCH  19  26
ENDBRANCH  12  14
ENDBRANCH   1  12
TORSDOF 6
ENDMDL
