MODEL 1
REMARK VINA RESULT:    -9.374      0.000      0.000
REMARK INTER + INTRA:         -13.639
REMARK INTER:                 -12.937
REMARK INTRA:                  -0.703
REMARK UNBOUND:                -0.703
REMARK SMILES Cc1cccc(C)c1OC[C@H](O)CNC(=O)N[C@H]1CCCc2occc21
REMARK SMILES IDX 10 1 9 2 8 3 2 4 3 5 4 6 6 7 5 8 1 9 7 10 11 11 13 12 14 13
REMARK SMILES IDX 15 14 16 15 17 16 18 19 19 20 26 21 20 22 22 23 25 24 21 25
REMARK SMILES IDX 23 26 24 27 12 28
REMARK H PARENT 14 17 17 18 12 29
ROOT
ATOM      1  C   UNL     1      51.999  54.296  19.310  1.00  0.00    +0.263 C 
ENDROOT
BRANCH   1   2
ATOM      2  O   UNL     1      51.057  54.059  20.377  1.00  0.00    -0.490 OA
BRANCH   2   3
ATOM      3  C   UNL     1      50.205  55.122  20.552  1.00  0.00    +0.125 A 
ATOM      4  C   UNL     1      50.582  56.113  21.475  1.00  0.00    -0.009 A 
ATOM      5  C   UNL     1      49.727  57.202  21.687  1.00  0.00    +0.007 A 
ATOM      6  C   UNL     1      48.538  57.320  20.969  1.00  0.00    +0.001 A 
ATOM      7  C   UNL     1      49.033  55.254  19.785  1.00  0.00    -0.009 A 
ATOM      8  C   UNL     1      48.196  56.355  20.023  1.00  0.00    +0.007 A 
ATOM      9  C   UNL     1      51.849  55.997  22.274  1.00  0.00    +0.048 C 
ATOM     10  C   UNL     1      48.631  54.244  18.748  1.00  0.00    +0.048 C 
ENDBRANCH   2   3
ENDBRANCH   1   2
BRANCH   1  11
ATOM     11  C   UNL     1      52.771  52.992  19.084  1.00  0.00    +0.171 C 
BRANCH  11  12
ATOM     12  C   UNL     1      52.018  51.739  19.552  1.00  0.00    +0.153 C 
BRANCH  12  13
ATOM     13  N   UNL     1      50.912  51.382  18.677  1.00  0.00    -0.335 N 
ATOM     14  C   UNL     1      50.303  50.157  18.760  1.00  0.00    +0.315 C 
ATOM     15  O   UNL     1      50.672  49.255  19.500  1.00  0.00    -0.249 OA
ATOM     16  N   UNL     1      49.222  50.090  17.921  1.00  0.00    -0.331 N 
ATOM     17  H   UNL     1      50.284  52.149  18.480  1.00  0.00    +0.165 HD
ATOM     18  H   UNL     1      49.307  50.661  17.093  1.00  0.00    +0.166 HD
BRANCH  16  19
ATOM     19  C   UNL     1      48.451  48.871  17.778  1.00  0.00    +0.117 C 
ATOM     20  C   UNL     1      47.354  48.817  18.875  1.00  0.00    +0.030 C 
ATOM     21  C   UNL     1      47.829  48.835  16.419  1.00  0.00    +0.016 A 
ATOM     22  C   UNL     1      46.246  47.785  18.569  1.00  0.00    +0.010 C 
ATOM     23  C   UNL     1      46.514  48.468  16.226  1.00  0.00    +0.109 A 
ATOM     24  C   UNL     1      48.348  49.070  15.121  1.00  0.00    +0.048 A 
ATOM     25  C   UNL     1      45.513  48.090  17.246  1.00  0.00    +0.076 C 
ATOM     26  O   UNL     1      46.177  48.485  14.918  1.00  0.00    -0.469 OA
ATOM     27  C   UNL     1      47.305  48.851  14.246  1.00  0.00    +0.195 A 
ENDBRANCH  16  19
ENDBRANCH  12  13
ENDBRANCH  11  12
BRANCH  11  28
ATOM     28  O   UNL     1      53.100  52.851  17.689  1.00  0.00    -0.388 OA
ATOM     29  H   UNL     1      53.001  51.896  17.497  1.00  0.00    +0.211 HD
ENDBRANCH  11  28
ENDBRANCH   1  11
TORSDOF 7
ENDMDL
MODEL 2
REMARK VINA RESULT:    -8.965      1.786      8.192
REMARK INTER + INTRA:         -13.074
REMARK INTER:                 -12.595
REMARK INTRA:                  -0.479
REMARK UNBOUND:                -0.703
REMARK SMILES Cc1cccc(C)c1OC[C@H](O)CNC(=O)N[C@H]1CCCc2occc21
REMARK SMILES IDX 10 1 9 2 8 3 2 4 3 5 4 6 6 7 5 8 1 9 7 10 11 11 13 12 14 13
REMARK SMILES IDX 15 14 16 15 17 16 18 19 19 20 26 21 20 22 22 23 25 24 21 25
REMARK SMILES IDX 23 26 24 27 12 28
REMARK H PARENT 14 17 17 18 12 29
ROOT
ATOM      1  C   UNL     1      48.443  50.256  15.840  1.00  0.00    +0.263 C 
ENDROOT
BRANCH   1   2
ATOM      2  O   UNL     1      48.205  48.833  15.877  1.00  0.00    -0.490 OA
BRANCH   2   3
ATOM      3  C   UNL     1      47.002  48.532  16.467  1.00  0.00    +0.125 A 
ATOM      4  C   UNL     1      45.935  48.178  15.624  1.00  0.00    -0.009 A 
ATOM      5  C   UNL     1      44.691  47.880  16.195  1.00  0.00    +0.007 A 
ATOM      6  C   UNL     1      44.523  47.899  17.578  1.00  0.00    +0.001 A 
ATOM      7  C   UNL     1      46.860  48.507  17.866  1.00  0.00    -0.009 A 
ATOM      8  C   UNL     1      45.600  48.207  18.408  1.00  0.00    +0.007 A 
ATOM      9  C   UNL     1      46.087  48.170  14.130  1.00  0.00    +0.048 C 
ATOM     10  C   UNL     1      47.997  48.821  18.797  1.00  0.00    +0.048 C 
ENDBRANCH   2   3
ENDBRANCH   1   2
BRANCH   1  11
ATOM     11  C   UNL     1      49.959  50.465  15.777  1.00  0.00    +0.171 C 
BRANCH  11  12
ATOM     12  C   UNL     1      50.611  50.678  17.150  1.00  0.00    +0.153 C 
BRANCH  12  13
ATOM     13  N   UNL     1      50.440  52.031  17.656  1.00  0.00    -0.335 N 
ATOM     14  C   UNL     1      50.403  52.291  19.001  1.00  0.00    +0.315 C 
ATOM     15  O   UNL     1      50.431  51.428  19.868  1.00  0.00    -0.249 OA
ATOM     16  N   UNL     1      50.350  53.639  19.237  1.00  0.00    -0.331 N 
ATOM     17  H   UNL     1      50.916  52.734  17.107  1.00  0.00    +0.165 HD
ATOM     18  H   UNL     1      49.885  54.166  18.514  1.00  0.00    +0.166 HD
BRANCH  16  19
ATOM     19  C   UNL     1      50.235  54.166  20.583  1.00  0.00    +0.117 C 
ATOM     20  C   UNL     1      51.652  54.382  21.181  1.00  0.00    +0.030 C 
ATOM     21  C   UNL     1      49.485  55.458  20.546  1.00  0.00    +0.016 A 
ATOM     22  C   UNL     1      51.648  55.299  22.423  1.00  0.00    +0.010 C 
ATOM     23  C   UNL     1      49.899  56.565  21.255  1.00  0.00    +0.109 A 
ATOM     24  C   UNL     1      48.274  55.845  19.919  1.00  0.00    +0.048 A 
ATOM     25  C   UNL     1      51.097  56.705  22.110  1.00  0.00    +0.076 C 
ATOM     26  O   UNL     1      49.056  57.609  21.091  1.00  0.00    -0.469 OA
ATOM     27  C   UNL     1      48.061  57.160  20.275  1.00  0.00    +0.195 A 
ENDBRANCH  16  19
ENDBRANCH  12  13
ENDBRANCH  11  12
BRANCH  11  28
ATOM     28  O   UNL     1      50.584  49.340  15.128  1.00  0.00    -0.388 OA
ATOM     29  H   UNL     1      50.016  49.140  14.357  1.00  0.00    +0.211 HD
ENDBRANCH  11  28
ENDBRANCH   1  11
TORSDOF 7
ENDMDL
MODEL 3
REMARK VINA RESULT:    -8.895      1.586      2.449
REMARK INTER + INTRA:         -12.978
REMARK INTER:                 -12.581
REMARK INTRA:                  -0.396
REMARK UNBOUND:                -0.703
REMARK SMILES Cc1cccc(C)c1OC[C@H](O)CNC(=O)N[C@H]1CCCc2occc21
REMARK SMILES IDX 10 1 9 2 8 3 2 4 3 5 4 6 6 7 5 8 1 9 7 10 11 11 13 12 14 13
REMARK SMILES IDX 15 14 16 15 17 16 18 19 19 20 26 21 20 22 22 23 25 24 21 25
REMARK SMILES IDX 23 26 24 27 12 28
REMARK H PARENT 14 17 17 18 12 29
ROOT
ATOM      1  C   UNL     1      51.031  53.728  21.679  1.00  0.00    +0.263 C 
ENDROOT
BRANCH   1   2
ATOM      2  O   UNL     1      50.965  54.622  20.549  1.00  0.00    -0.490 OA
BRANCH   2   3
ATOM      3  C   UNL     1      50.176  55.716  20.808  1.00  0.00    +0.125 A 
ATOM      4  C   UNL     1      50.732  56.750  21.582  1.00  0.00    -0.009 A 
ATOM      5  C   UNL     1      49.947  57.872  21.877  1.00  0.00    +0.007 A 
ATOM      6  C   UNL     1      48.648  57.978  21.383  1.00  0.00    +0.001 A 
ATOM      7  C   UNL     1      48.885  55.833  20.263  1.00  0.00    -0.009 A 
ATOM      8  C   UNL     1      48.122  56.968  20.578  1.00  0.00    +0.007 A 
ATOM      9  C   UNL     1      52.122  56.648  22.142  1.00  0.00    +0.048 C 
ATOM     10  C   UNL     1      48.284  54.773  19.383  1.00  0.00    +0.048 C 
ENDBRANCH   2   3
ENDBRANCH   1   2
BRANCH   1  11
ATOM     11  C   UNL     1      50.900  52.300  21.141  1.00  0.00    +0.171 C 
BRANCH  11  12
ATOM     12  C   UNL     1      50.998  52.204  19.612  1.00  0.00    +0.153 C 
BRANCH  12  13
ATOM     13  N   UNL     1      50.093  51.217  19.045  1.00  0.00    -0.335 N 
ATOM     14  C   UNL     1      49.408  51.461  17.883  1.00  0.00    +0.315 C 
ATOM     15  O   UNL     1      49.437  52.524  17.280  1.00  0.00    -0.249 OA
ATOM     16  N   UNL     1      48.710  50.351  17.486  1.00  0.00    -0.331 N 
ATOM     17  H   UNL     1      50.412  50.263  19.151  1.00  0.00    +0.165 HD
ATOM     18  H   UNL     1      48.407  49.761  18.245  1.00  0.00    +0.166 HD
BRANCH  16  19
ATOM     19  C   UNL     1      47.851  50.378  16.319  1.00  0.00    +0.117 C 
ATOM     20  C   UNL     1      48.633  49.853  15.084  1.00  0.00    +0.030 C 
ATOM     21  C   UNL     1      46.647  49.528  16.570  1.00  0.00    +0.016 A 
ATOM     22  C   UNL     1      47.712  49.465  13.907  1.00  0.00    +0.010 C 
ATOM     23  C   UNL     1      46.166  48.644  15.628  1.00  0.00    +0.109 A 
ATOM     24  C   UNL     1      45.746  49.443  17.661  1.00  0.00    +0.048 A 
ATOM     25  C   UNL     1      46.715  48.352  14.287  1.00  0.00    +0.076 C 
ATOM     26  O   UNL     1      45.059  48.003  16.063  1.00  0.00    -0.469 OA
ATOM     27  C   UNL     1      44.804  48.499  17.307  1.00  0.00    +0.195 A 
ENDBRANCH  16  19
ENDBRANCH  12  13
ENDBRANCH  11  12
BRANCH  11  28
ATOM     28  O   UNL     1      51.908  51.457  21.731  1.00  0.00    -0.388 OA
ATOM     29  H   UNL     1      52.281  50.942  20.987  1.00  0.00    +0.211 HD
ENDBRANCH  11  28
ENDBRANCH   1  11
TORSDOF 7
ENDMDL
MODEL 4
REMARK VINA RESULT:    -8.621      1.591      8.397
REMARK INTER + INTRA:         -12.599
REMARK INTER:                 -12.161
REMARK INTRA:                  -0.438
REMARK UNBOUND:                -0.703
REMARK SMILES Cc1cccc(C)c1OC[C@H](O)CNC(=O)N[C@H]1CCCc2occc21
REMARK SMILES IDX 10 1 9 2 8 3 2 4 3 5 4 6 6 7 5 8 1 9 7 10 11 11 13 12 14 13
REMARK SMILES IDX 15 14 16 15 17 16 18 19 19 20 26 21 20 22 22 23 25 24 21 25
REMARK SMILES IDX 23 26 24 27 12 28
REMARK H PARENT 14 17 17 18 12 29
ROOT
ATOM      1  C   UNL     1      48.860  49.408  18.508  1.00  0.00    +0.263 C 
ENDROOT
BRANCH   1   2
ATOM      2  O   UNL     1      48.489  48.105  18.014  1.00  0.00    -0.490 OA
BRANCH   2   3
ATOM      3  C   UNL     1      47.458  48.177  17.109  1.00  0.00    +0.125 A 
ATOM      4  C   UNL     1      47.790  48.392  15.761  1.00  0.00    -0.009 A 
ATOM      5  C   UNL     1      46.761  48.487  14.815  1.00  0.00    +0.007 A 
ATOM      6  C   UNL     1      45.429  48.333  15.200  1.00  0.00    +0.001 A 
ATOM      7  C   UNL     1      46.123  47.971  17.503  1.00  0.00    -0.009 A 
ATOM      8  C   UNL     1      45.113  48.074  16.533  1.00  0.00    +0.007 A 
ATOM      9  C   UNL     1      49.215  48.580  15.326  1.00  0.00    +0.048 C 
ATOM     10  C   UNL     1      45.739  47.679  18.926  1.00  0.00    +0.048 C 
ENDBRANCH   2   3
ENDBRANCH   1   2
BRANCH   1  11
ATOM     11  C   UNL     1      50.203  49.257  19.230  1.00  0.00    +0.171 C 
BRANCH  11  12
ATOM     12  C   UNL     1      51.080  50.516  19.173  1.00  0.00    +0.153 C 
BRANCH  12  13
ATOM     13  N   UNL     1      50.513  51.636  19.908  1.00  0.00    -0.335 N 
ATOM     14  C   UNL     1      50.484  52.898  19.375  1.00  0.00    +0.315 C 
ATOM     15  O   UNL     1      50.984  53.201  18.301  1.00  0.00    -0.249 OA
ATOM     16  N   UNL     1      49.805  53.760  20.195  1.00  0.00    -0.331 N 
ATOM     17  H   UNL     1      49.698  51.394  20.456  1.00  0.00    +0.165 HD
ATOM     18  H   UNL     1      49.861  53.526  21.175  1.00  0.00    +0.166 HD
BRANCH  16  19
ATOM     19  C   UNL     1      49.695  55.171  19.883  1.00  0.00    +0.117 C 
ATOM     20  C   UNL     1      48.230  55.639  20.097  1.00  0.00    +0.030 C 
ATOM     21  C   UNL     1      50.621  55.948  20.762  1.00  0.00    +0.016 A 
ATOM     22  C   UNL     1      48.094  57.175  20.183  1.00  0.00    +0.010 C 
ATOM     23  C   UNL     1      50.231  57.111  21.390  1.00  0.00    +0.109 A 
ATOM     24  C   UNL     1      51.986  55.775  21.105  1.00  0.00    +0.048 A 
ATOM     25  C   UNL     1      48.908  57.769  21.351  1.00  0.00    +0.076 C 
ATOM     26  O   UNL     1      51.238  57.652  22.112  1.00  0.00    -0.469 OA
ATOM     27  C   UNL     1      52.311  56.832  21.930  1.00  0.00    +0.195 A 
ENDBRANCH  16  19
ENDBRANCH  12  13
ENDBRANCH  11  12
BRANCH  11  28
ATOM     28  O   UNL     1      49.984  48.898  20.608  1.00  0.00    -0.388 OA
ATOM     29  H   UNL     1      49.836  47.931  20.601  1.00  0.00    +0.211 HD
ENDBRANCH  11  28
ENDBRANCH   1  11
TORSDOF 7
ENDMDL
MODEL 5
REMARK VINA RESULT:    -7.697      2.152      3.446
REMARK INTER + INTRA:         -11.324
REMARK INTER:                 -11.116
REMARK INTRA:                  -0.208
REMARK UNBOUND:                -0.703
REMARK SMILES Cc1cccc(C)c1OC[C@H](O)CNC(=O)N[C@H]1CCCc2occc21
REMARK SMILES IDX 10 1 9 2 8 3 2 4 3 5 4 6 6 7 5 8 1 9 7 10 11 11 13 12 14 13
REMARK SMILES IDX 15 14 16 15 17 16 18 19 19 20 26 21 20 22 22 23 25 24 21 25
REMARK SMILES IDX 23 26 24 27 12 28
REMARK H PARENT 14 17 17 18 12 29
ROOT
ATOM      1  C   UNL     1      50.329  55.968  19.045  1.00  0.00    +0.263 C 
ENDROOT
BRANCH   1   2
ATOM      2  O   UNL     1      48.914  55.959  19.326  1.00  0.00    -0.490 OA
BRANCH   2   3
ATOM      3  C   UNL     1      48.321  57.153  18.997  1.00  0.00    +0.125 A 
ATOM      4  C   UNL     1      47.899  57.325  17.668  1.00  0.00    -0.009 A 
ATOM      5  C   UNL     1      47.305  58.539  17.297  1.00  0.00    +0.007 A 
ATOM      6  C   UNL     1      47.102  59.546  18.239  1.00  0.00    +0.001 A 
ATOM      7  C   UNL     1      48.078  58.141  19.968  1.00  0.00    -0.009 A 
ATOM      8  C   UNL     1      47.483  59.347  19.566  1.00  0.00    +0.007 A 
ATOM      9  C   UNL     1      48.124  56.263  16.631  1.00  0.00    +0.048 C 
ATOM     10  C   UNL     1      48.462  57.964  21.410  1.00  0.00    +0.048 C 
ENDBRANCH   2   3
ENDBRANCH   1   2
BRANCH   1  11
ATOM     11  C   UNL     1      50.878  54.587  19.419  1.00  0.00    +0.171 C 
BRANCH  11  12
ATOM     12  C   UNL     1      49.798  53.501  19.524  1.00  0.00    +0.153 C 
BRANCH  12  13
ATOM     13  N   UNL     1      49.165  53.204  18.248  1.00  0.00    -0.335 N 
ATOM     14  C   UNL     1      49.060  51.918  17.785  1.00  0.00    +0.315 C 
ATOM     15  O   UNL     1      49.542  50.945  18.348  1.00  0.00    -0.249 OA
ATOM     16  N   UNL     1      48.331  51.874  16.626  1.00  0.00    -0.331 N 
ATOM     17  H   UNL     1      48.366  53.790  18.044  1.00  0.00    +0.165 HD
ATOM     18  H   UNL     1      48.401  52.708  16.063  1.00  0.00    +0.166 HD
BRANCH  16  19
ATOM     19  C   UNL     1      48.137  50.633  15.904  1.00  0.00    +0.117 C 
ATOM     20  C   UNL     1      49.508  49.937  15.685  1.00  0.00    +0.030 C 
ATOM     21  C   UNL     1      47.223  49.743  16.684  1.00  0.00    +0.016 A 
ATOM     22  C   UNL     1      49.374  48.449  15.295  1.00  0.00    +0.010 C 
ATOM     23  C   UNL     1      47.482  48.401  16.860  1.00  0.00    +0.109 A 
ATOM     24  C   UNL     1      45.977  49.972  17.320  1.00  0.00    +0.048 A 
ATOM     25  C   UNL     1      48.644  47.625  16.376  1.00  0.00    +0.076 C 
ATOM     26  O   UNL     1      46.510  47.793  17.575  1.00  0.00    -0.469 OA
ATOM     27  C   UNL     1      45.589  48.759  17.851  1.00  0.00    +0.195 A 
ENDBRANCH  16  19
ENDBRANCH  12  13
ENDBRANCH  11  12
BRANCH  11  28
ATOM     28  O   UNL     1      51.868  54.175  18.457  1.00  0.00    -0.388 OA
ATOM     29  H   UNL     1      51.495  53.376  18.030  1.00  0.00    +0.211 HD
ENDBRANCH  11  28
ENDBRANCH   1  11
TORSDOF 7
ENDMDL
